+ 2.4868 21 6 exp 536 ------- 0 21.1 6.1 0 0 6.00 -6.00 -9.00 9.00
- 2.4868 21 6 exp 536 ------- 0 21.1 6.1 0 0 6.00 -6.00 -9.00 9.00
+ 2.4890 20 5 exp 536 ------- 0 20.1 5.1 0 1 5.00 -5.00 -10.00 10.00
- 2.4890 20 5 exp 536 ------- 0 20.1 5.1 0 1 5.00 -5.00 -10.00 10.00
+ 2.5035 14 29 exp 536 ------- 0 14.0 29.0 0 2 -1.00 1.00 14.00 -14.00
- 2.5035 14 29 exp 536 ------- 0 14.0 29.0 0 2 -1.00 1.00 14.00 -14.00
+ 2.5099 16 1 exp 536 ------- 0 16.1 1.1 0 3 1.00 -1.00 -14.00 14.00
- 2.5099 16 1 exp 536 ------- 0 16.1 1.1 0 3 1.00 -1.00 -14.00 14.00
+ 2.5187 6 21 exp 536 ------- 0 6.0 21.0 0 4 -9.00 9.00 6.00 -6.00
- 2.5187 6 21 exp 536 ------- 0 6.0 21.0 0 4 -9.00 9.00 6.00 -6.00
+ 2.5307 4 19 exp 536 ------- 0 4.0 19.0 0 5 -11.00 11.00 4.00 -4.00
- 2.5307 4 19 exp 536 ------- 0 4.0 19.0 0 5 -11.00 11.00 4.00 -4.00
+ 2.5414 3 18 exp 536 ------- 0 3.0 18.0 0 6 -12.00 12.00 3.00 -3.00
- 2.5414 3 18 exp 536 ------- 0 3.0 18.0 0 6 -12.00 12.00 3.00 -3.00
+ 2.5504 30 15 exp 536 ------- 0 30.1 15.1 0 7 15.00 -15.00 0.00 0.00
- 2.5504 30 15 exp 536 ------- 0 30.1 15.1 0 7 15.00 -15.00 0.00 0.00
+ 2.5651 17 2 exp 536 ------- 0 17.1 2.1 0 8 2.00 -2.00 -13.00 13.00
- 2.5651 17 2 exp 536 ------- 0 17.1 2.1 0 8 2.00 -2.00 -13.00 13.00
+ 2.6534 5 20 exp 536 ------- 0 5.0 20.0 0 9 -10.00 10.00 5.00 -5.00
- 2.6534 5 20 exp 536 ------- 0 5.0 20.0 0 9 -10.00 10.00 5.00 -5.00
+ 2.6889 23 8 exp 536 ------- 0 23.1 8.1 0 10 8.00 -8.00 -7.00 7.00
- 2.6889 23 8 exp 536 ------- 0 23.1 8.1 0 10 8.00 -8.00 -7.00 7.00
+ 2.7229 1 16 exp 536 ------- 0 1.0 16.0 0 11 -14.00 14.00 1.00 -1.00
- 2.7229 1 16 exp 536 ------- 0 1.0 16.0 0 11 -14.00 14.00 1.00 -1.00
c 2.7286 21 6 exp 536 ------- 0 21.1 6.1 0 0 6.00 -6.00 -9.00 9.00
c 2.7287 20 5 exp 536 ------- 0 20.1 5.1 0 1 5.00 -5.00 -10.00 10.00
+ 2.7330 26 11 exp 536 ------- 0 26.1 11.1 0 12 11.00 -11.00 -4.00 4.00
- 2.7330 26 11 exp 536 ------- 0 26.1 11.1 0 12 11.00 -11.00 -4.00 4.00
r 2.7460 14 29 exp 536 ------- 0 14.0 29.0 0 2 -1.00 1.00 14.00 -14.00
r 2.7524 16 1 exp 536 ------- 0 16.1 1.1 0 3 1.00 -1.00 -14.00 14.00
r 2.7605 6 21 exp 536 ------- 0 6.0 21.0 0 4 -9.00 9.00 6.00 -6.00
r 2.7727 4 19 exp 536 ------- 0 4.0 19.0 0 5 -11.00 11.00 4.00 -4.00
r 2.7835 3 18 exp 536 ------- 0 3.0 18.0 0 6 -12.00 12.00 3.00 -3.00
r 2.7930 30 15 exp 536 ------- 0 30.1 15.1 0 7 15.00 -15.00 0.00 0.00
r 2.8073 17 2 exp 536 ------- 0 17.1 2.1 0 8 2.00 -2.00 -13.00 13.00
+ 2.8110 13 28 exp 536 ------- 0 13.0 28.0 0 13 -2.00 2.00 13.00 -13.00
- 2.8110 13 28 exp 536 ------- 0 13.0 28.0 0 13 -2.00 2.00 13.00 -13.00
+ 2.8564 28 13 exp 536 ------- 0 28.1 13.1 0 14 13.00 -13.00 -2.00 2.00
- 2.8564 28 13 exp 536 ------- 0 28.1 13.1 0 14 13.00 -13.00 -2.00 2.00
+ 2.8587 9 24 exp 536 ------- 0 9.0 24.0 0 15 -6.00 6.00 9.00 -9.00
- 2.8587 9 24 exp 536 ------- 0 9.0 24.0 0 15 -6.00 6.00 9.00 -9.00
+ 2.8767 12 27 exp 536 ------- 0 12.0 27.0 0 16 -3.00 3.00 12.00 -12.00
- 2.8767 12 27 exp 536 ------- 0 12.0 27.0 0 16 -3.00 3.00 12.00 -12.00
+ 2.8806 18 3 exp 536 ------- 0 18.1 3.1 0 17 3.00 -3.00 -12.00 12.00
- 2.8806 18 3 exp 536 ------- 0 18.1 3.1 0 17 3.00 -3.00 -12.00 12.00
+ 2.8822 19 4 exp 536 ------- 0 19.1 4.1 0 18 4.00 -4.00 -11.00 11.00
- 2.8822 19 4 exp 536 ------- 0 19.1 4.1 0 18 4.00 -4.00 -11.00 11.00
r 2.8953 5 20 exp 536 ------- 0 5.0 20.0 0 9 -10.00 10.00 5.00 -5.00
r 2.9307 23 8 exp 536 ------- 0 23.1 8.1 0 10 8.00 -8.00 -7.00 7.00
+ 2.9560 11 26 exp 536 ------- 0 11.0 26.0 0 19 -4.00 4.00 11.00 -11.00
- 2.9560 11 26 exp 536 ------- 0 11.0 26.0 0 19 -4.00 4.00 11.00 -11.00
r 2.9653 1 16 exp 536 ------- 0 1.0 16.0 0 11 -14.00 14.00 1.00 -1.00
r 2.9750 26 11 exp 536 ------- 0 26.1 11.1 0 12 11.00 -11.00 -4.00 4.00
+ 2.9877 29 14 exp 536 ------- 0 29.1 14.1 0 20 14.00 -14.00 -1.00 1.00
- 2.9877 29 14 exp 536 ------- 0 29.1 14.1 0 20 14.00 -14.00 -1.00 1.00
r 3.0532 13 28 exp 536 ------- 0 13.0 28.0 0 13 -2.00 2.00 13.00 -13.00
c 3.0978 28 13 exp 536 ------- 0 28.1 13.1 0 14 13.00 -13.00 -2.00 2.00
c 3.0984 9 24 exp 536 ------- 0 9.0 24.0 0 15 -6.00 6.00 9.00 -9.00
+ 3.0994 27 12 exp 536 ------- 0 27.1 12.1 0 21 12.00 -12.00 -3.00 3.00
- 3.0994 27 12 exp 536 ------- 0 27.1 12.1 0 21 12.00 -12.00 -3.00 3.00
+ 3.1087 25 10 exp 536 ------- 0 25.1 10.1 0 22 10.00 -10.00 -5.00 5.00
- 3.1087 25 10 exp 536 ------- 0 25.1 10.1 0 22 10.00 -10.00 -5.00 5.00
r 3.1188 12 27 exp 536 ------- 0 12.0 27.0 0 16 -3.00 3.00 12.00 -12.00
c 3.1220 19 4 exp 536 ------- 0 19.1 4.1 0 18 4.00 -4.00 -11.00 11.00
c 3.1222 18 3 exp 536 ------- 0 18.1 3.1 0 17 3.00 -3.00 -12.00 12.00
+ 3.1929 15 30 exp 536 ------- 0 15.0 30.0 0 23 0.00 0.00 15.00 -15.00
- 3.1929 15 30 exp 536 ------- 0 15.0 30.0 0 23 0.00 0.00 15.00 -15.00
r 3.1980 11 26 exp 536 ------- 0 11.0 26.0 0 19 -4.00 4.00 11.00 -11.00
r 3.2070 20 5 exp 536 ------- 0 20.1 5.1 0 1 5.00 -5.00 -10.00 10.00
r 3.2302 29 14 exp 536 ------- 0 29.1 14.1 0 20 14.00 -14.00 -1.00 1.00
r 3.3415 27 12 exp 536 ------- 0 27.1 12.1 0 21 12.00 -12.00 -3.00 3.00
r 3.3506 25 10 exp 536 ------- 0 25.1 10.1 0 22 10.00 -10.00 -5.00 5.00
r 3.4355 15 30 exp 536 ------- 0 15.0 30.0 0 23 0.00 0.00 15.00 -15.00
+ 3.4767 24 9 exp 536 ------- 0 24.1 9.1 0 24 9.00 -9.00 -6.00 6.00
- 3.4767 24 9 exp 536 ------- 0 24.1 9.1 0 24 9.00 -9.00 -6.00 6.00
+ 3.5160 8 23 exp 536 ------- 0 8.0 23.0 0 25 -7.00 7.00 8.00 -8.00
- 3.5160 8 23 exp 536 ------- 0 8.0 23.0 0 25 -7.00 7.00 8.00 -8.00
r 3.5835 21 6 exp 536 ------- 0 21.1 6.1 0 0 6.00 -6.00 -9.00 9.00
+ 3.6108 10 25 exp 536 ------- 0 10.0 25.0 0 26 -5.00 5.00 10.00 -10.00
- 3.6108 10 25 exp 536 ------- 0 10.0 25.0 0 26 -5.00 5.00 10.00 -10.00
r 3.6326 19 4 exp 536 ------- 0 19.1 4.1 0 18 4.00 -4.00 -11.00 11.00
+ 3.6438 2 17 exp 536 ------- 0 2.0 17.0 0 27 -13.00 13.00 2.00 -2.00
- 3.6438 2 17 exp 536 ------- 0 2.0 17.0 0 27 -13.00 13.00 2.00 -2.00
r 3.6535 9 24 exp 536 ------- 0 9.0 24.0 0 15 -6.00 6.00 9.00 -9.00
r 3.7185 24 9 exp 536 ------- 0 24.1 9.1 0 24 9.00 -9.00 -6.00 6.00
r 3.7578 8 23 exp 536 ------- 0 8.0 23.0 0 25 -7.00 7.00 8.00 -8.00
+ 3.8495 22 7 exp 536 ------- 0 22.1 7.1 0 28 7.00 -7.00 -8.00 8.00
- 3.8495 22 7 exp 536 ------- 0 22.1 7.1 0 28 7.00 -7.00 -8.00 8.00
r 3.8527 10 25 exp 536 ------- 0 10.0 25.0 0 26 -5.00 5.00 10.00 -10.00
r 3.8805 18 3 exp 536 ------- 0 18.1 3.1 0 17 3.00 -3.00 -12.00 12.00
r 3.8861 2 17 exp 536 ------- 0 2.0 17.0 0 27 -13.00 13.00 2.00 -2.00
+ 3.9450 14 29 exp 536 ------- 0 14.0 29.0 1 29 -1.00 1.00 14.00 -14.00
- 3.9450 14 29 exp 536 ------- 0 14.0 29.0 1 29 -1.00 1.00 14.00 -14.00
+ 4.0050 7 22 exp 536 ------- 0 7.0 22.0 0 30 -8.00 8.00 7.00 -7.00
- 4.0050 7 22 exp 536 ------- 0 7.0 22.0 0 30 -8.00 8.00 7.00 -7.00
+ 4.0205 6 21 exp 536 ------- 0 6.0 21.0 1 31 -9.00 9.00 6.00 -6.00
- 4.0205 6 21 exp 536 ------- 0 6.0 21.0 1 31 -9.00 9.00 6.00 -6.00
+ 4.0308 30 15 exp 536 ------- 0 30.1 15.1 1 32 15.00 -15.00 0.00 0.00
- 4.0308 30 15 exp 536 ------- 0 30.1 15.1 1 32 15.00 -15.00 0.00 0.00
+ 4.0451 21 6 exp 536 ------- 0 21.1 6.1 1 33 6.00 -6.00 -9.00 9.00
- 4.0451 21 6 exp 536 ------- 0 21.1 6.1 1 33 6.00 -6.00 -9.00 9.00
+ 4.0614 17 2 exp 536 ------- 0 17.1 2.1 1 34 2.00 -2.00 -13.00 13.00
- 4.0614 17 2 exp 536 ------- 0 17.1 2.1 1 34 2.00 -2.00 -13.00 13.00
r 4.0913 22 7 exp 536 ------- 0 22.1 7.1 0 28 7.00 -7.00 -8.00 8.00
+ 4.1003 20 5 exp 536 ------- 0 20.1 5.1 1 35 5.00 -5.00 -10.00 10.00
- 4.1003 20 5 exp 536 ------- 0 20.1 5.1 1 35 5.00 -5.00 -10.00 10.00
+ 4.1139 4 19 exp 536 ------- 0 4.0 19.0 1 36 -11.00 11.00 4.00 -4.00
- 4.1139 4 19 exp 536 ------- 0 4.0 19.0 1 36 -11.00 11.00 4.00 -4.00
+ 4.1182 23 8 exp 536 ------- 0 23.1 8.1 1 37 8.00 -8.00 -7.00 7.00
- 4.1182 23 8 exp 536 ------- 0 23.1 8.1 1 37 8.00 -8.00 -7.00 7.00
+ 4.1523 1 16 exp 536 ------- 0 1.0 16.0 1 38 -14.00 14.00 1.00 -1.00
- 4.1523 1 16 exp 536 ------- 0 1.0 16.0 1 38 -14.00 14.00 1.00 -1.00
r 4.1874 14 29 exp 536 ------- 0 14.0 29.0 1 29 -1.00 1.00 14.00 -14.00
+ 4.2361 5 20 exp 536 ------- 0 5.0 20.0 1 39 -10.00 10.00 5.00 -5.00
- 4.2361 5 20 exp 536 ------- 0 5.0 20.0 1 39 -10.00 10.00 5.00 -5.00
r 4.2468 7 22 exp 536 ------- 0 7.0 22.0 0 30 -8.00 8.00 7.00 -7.00
r 4.2623 6 21 exp 536 ------- 0 6.0 21.0 1 31 -9.00 9.00 6.00 -6.00
r 4.2734 30 15 exp 536 ------- 0 30.1 15.1 1 32 15.00 -15.00 0.00 0.00
r 4.2869 21 6 exp 536 ------- 0 21.1 6.1 1 33 6.00 -6.00 -9.00 9.00
+ 4.2942 16 1 exp 536 ------- 0 16.1 1.1 1 40 1.00 -1.00 -14.00 14.00
- 4.2942 16 1 exp 536 ------- 0 16.1 1.1 1 40 1.00 -1.00 -14.00 14.00
r 4.3036 17 2 exp 536 ------- 0 17.1 2.1 1 34 2.00 -2.00 -13.00 13.00
r 4.3422 20 5 exp 536 ------- 0 20.1 5.1 1 35 5.00 -5.00 -10.00 10.00
r 4.3559 4 19 exp 536 ------- 0 4.0 19.0 1 36 -11.00 11.00 4.00 -4.00
r 4.3600 23 8 exp 536 ------- 0 23.1 8.1 1 37 8.00 -8.00 -7.00 7.00
r 4.3947 1 16 exp 536 ------- 0 1.0 16.0 1 38 -14.00 14.00 1.00 -1.00
+ 4.4454 13 28 exp 536 ------- 0 13.0 28.0 1 41 -2.00 2.00 13.00 -13.00
- 4.4454 13 28 exp 536 ------- 0 13.0 28.0 1 41 -2.00 2.00 13.00 -13.00
r 4.4780 5 20 exp 536 ------- 0 5.0 20.0 1 39 -10.00 10.00 5.00 -5.00
+ 4.4914 18 3 exp 536 ------- 0 18.1 3.1 1 42 3.00 -3.00 -12.00 12.00
- 4.4914 18 3 exp 536 ------- 0 18.1 3.1 1 42 3.00 -3.00 -12.00 12.00
r 4.5366 16 1 exp 536 ------- 0 16.1 1.1 1 40 1.00 -1.00 -14.00 14.00
+ 4.5926 27 12 exp 536 ------- 0 27.1 12.1 1 43 12.00 -12.00 -3.00 3.00
- 4.5926 27 12 exp 536 ------- 0 27.1 12.1 1 43 12.00 -12.00 -3.00 3.00
+ 4.6786 26 11 exp 536 ------- 0 26.1 11.1 1 44 11.00 -11.00 -4.00 4.00
- 4.6786 26 11 exp 536 ------- 0 26.1 11.1 1 44 11.00 -11.00 -4.00 4.00
r 4.6877 13 28 exp 536 ------- 0 13.0 28.0 1 41 -2.00 2.00 13.00 -13.00
r 4.7335 18 3 exp 536 ------- 0 18.1 3.1 1 42 3.00 -3.00 -12.00 12.00
+ 4.7359 28 13 exp 536 ------- 0 28.1 13.1 1 45 13.00 -13.00 -2.00 2.00
+ 4.7804 9 24 exp 536 ------- 0 9.0 24.0 1 46 -6.00 6.00 9.00 -9.00
- 4.7804 9 24 exp 536 ------- 0 9.0 24.0 1 46 -6.00 6.00 9.00 -9.00
r 4.8347 27 12 exp 536 ------- 0 27.1 12.1 1 43 12.00 -12.00 -3.00 3.00
r 4.9206 26 11 exp 536 ------- 0 26.1 11.1 1 44 11.00 -11.00 -4.00 4.00
+ 4.9791 11 26 exp 536 ------- 0 11.0 26.0 1 47 -4.00 4.00 11.00 -11.00
- 4.9791 11 26 exp 536 ------- 0 11.0 26.0 1 47 -4.00 4.00 11.00 -11.00
+ 4.9841 29 14 exp 536 ------- 0 29.1 14.1 1 48 14.00 -14.00 -1.00 1.00
- 4.9841 29 14 exp 536 ------- 0 29.1 14.1 1 48 14.00 -14.00 -1.00 1.00
+ 5.0201 15 30 exp 536 ------- 0 15.0 30.0 1 49 0.00 0.00 15.00 -15.00
- 5.0201 15 30 exp 536 ------- 0 15.0 30.0 1 49 0.00 0.00 15.00 -15.00
r 5.0222 9 24 exp 536 ------- 0 9.0 24.0 1 46 -6.00 6.00 9.00 -9.00
+ 5.1848 3 18 exp 536 ------- 0 3.0 18.0 1 50 -12.00 12.00 3.00 -3.00
- 5.1848 3 18 exp 536 ------- 0 3.0 18.0 1 50 -12.00 12.00 3.00 -3.00
r 5.2211 11 26 exp 536 ------- 0 11.0 26.0 1 47 -4.00 4.00 11.00 -11.00
r 5.2265 29 14 exp 536 ------- 0 29.1 14.1 1 48 14.00 -14.00 -1.00 1.00
r 5.2627 15 30 exp 536 ------- 0 15.0 30.0 1 49 0.00 0.00 15.00 -15.00
+ 5.3589 8 23 exp 536 ------- 0 8.0 23.0 1 51 -7.00 7.00 8.00 -8.00
- 5.3589 8 23 exp 536 ------- 0 8.0 23.0 1 51 -7.00 7.00 8.00 -8.00
+ 5.4204 25 10 exp 536 ------- 0 25.1 10.1 1 52 10.00 -10.00 -5.00 5.00
- 5.4204 25 10 exp 536 ------- 0 25.1 10.1 1 52 10.00 -10.00 -5.00 5.00
r 5.4269 3 18 exp 536 ------- 0 3.0 18.0 1 50 -12.00 12.00 3.00 -3.00
+ 5.4888 7 22 exp 536 ------- 0 7.0 22.0 1 53 -8.00 8.00 7.00 -7.00
- 5.4888 7 22 exp 536 ------- 0 7.0 22.0 1 53 -8.00 8.00 7.00 -7.00
+ 5.5279 14 29 exp 536 ------- 0 14.0 29.0 2 54 -1.00 1.00 14.00 -14.00
- 5.5279 14 29 exp 536 ------- 0 14.0 29.0 2 54 -1.00 1.00 14.00 -14.00
+ 5.5306 6 21 exp 536 ------- 0 6.0 21.0 2 55 -9.00 9.00 6.00 -6.00
- 5.5306 6 21 exp 536 ------- 0 6.0 21.0 2 55 -9.00 9.00 6.00 -6.00
+ 5.5479 12 27 exp 536 ------- 0 12.0 27.0 1 56 -3.00 3.00 12.00 -12.00
- 5.5479 12 27 exp 536 ------- 0 12.0 27.0 1 56 -3.00 3.00 12.00 -12.00
+ 5.5816 1 16 exp 536 ------- 0 1.0 16.0 2 57 -14.00 14.00 1.00 -1.00
- 5.5816 1 16 exp 536 ------- 0 1.0 16.0 2 57 -14.00 14.00 1.00 -1.00
r 5.6007 8 23 exp 536 ------- 0 8.0 23.0 1 51 -7.00 7.00 8.00 -8.00
+ 5.6363 4 19 exp 536 ------- 0 4.0 19.0 2 58 -11.00 11.00 4.00 -4.00
- 5.6363 4 19 exp 536 ------- 0 4.0 19.0 2 58 -11.00 11.00 4.00 -4.00
r 5.6623 25 10 exp 536 ------- 0 25.1 10.1 1 52 10.00 -10.00 -5.00 5.00
+ 5.7036 20 5 exp 536 ------- 0 20.1 5.1 2 59 5.00 -5.00 -10.00 10.00
- 5.7036 20 5 exp 536 ------- 0 20.1 5.1 2 59 5.00 -5.00 -10.00 10.00
+ 5.7091 22 7 exp 536 ------- 0 22.1 7.1 1 60 7.00 -7.00 -8.00 8.00
- 5.7091 22 7 exp 536 ------- 0 22.1 7.1 1 60 7.00 -7.00 -8.00 8.00
r 5.7306 7 22 exp 536 ------- 0 7.0 22.0 1 53 -8.00 8.00 7.00 -7.00
r 5.7703 14 29 exp 536 ------- 0 14.0 29.0 2 54 -1.00 1.00 14.00 -14.00
r 5.7725 6 21 exp 536 ------- 0 6.0 21.0 2 55 -9.00 9.00 6.00 -6.00
r 5.7900 12 27 exp 536 ------- 0 12.0 27.0 1 56 -3.00 3.00 12.00 -12.00
r 5.8240 1 16 exp 536 ------- 0 1.0 16.0 2 57 -14.00 14.00 1.00 -1.00
+ 5.8437 2 17 exp 536 ------- 0 2.0 17.0 1 61 -13.00 13.00 2.00 -2.00
- 5.8437 2 17 exp 536 ------- 0 2.0 17.0 1 61 -13.00 13.00 2.00 -2.00
r 5.8783 4 19 exp 536 ------- 0 4.0 19.0 2 58 -11.00 11.00 4.00 -4.00
+ 5.8908 5 20 exp 536 ------- 0 5.0 20.0 2 62 -10.00 10.00 5.00 -5.00
- 5.8908 5 20 exp 536 ------- 0 5.0 20.0 2 62 -10.00 10.00 5.00 -5.00
+ 5.9057 13 28 exp 536 ------- 0 13.0 28.0 2 63 -2.00 2.00 13.00 -13.00
- 5.9057 13 28 exp 536 ------- 0 13.0 28.0 2 63 -2.00 2.00 13.00 -13.00
r 5.9455 20 5 exp 536 ------- 0 20.1 5.1 2 59 5.00 -5.00 -10.00 10.00
r 5.9509 22 7 exp 536 ------- 0 22.1 7.1 1 60 7.00 -7.00 -8.00 8.00
+ 5.9726 18 3 exp 536 ------- 0 18.1 3.1 2 64 3.00 -3.00 -12.00 12.00
- 5.9726 18 3 exp 536 ------- 0 18.1 3.1 2 64 3.00 -3.00 -12.00 12.00
+ 6.0204 19 4 exp 536 ------- 0 19.1 4.1 1 65 4.00 -4.00 -11.00 11.00
- 6.0204 19 4 exp 536 ------- 0 19.1 4.1 1 65 4.00 -4.00 -11.00 11.00
+ 6.0715 27 12 exp 536 ------- 0 27.1 12.1 2 66 12.00 -12.00 -3.00 3.00
- 6.0715 27 12 exp 536 ------- 0 27.1 12.1 2 66 12.00 -12.00 -3.00 3.00
r 6.0860 2 17 exp 536 ------- 0 2.0 17.0 1 61 -13.00 13.00 2.00 -2.00
+ 6.0870 23 8 exp 536 ------- 0 23.1 8.1 2 67 8.00 -8.00 -7.00 7.00
- 6.0870 23 8 exp 536 ------- 0 23.1 8.1 2 67 8.00 -8.00 -7.00 7.00
+ 6.1037 10 25 exp 536 ------- 0 10.0 25.0 1 68 -5.00 5.00 10.00 -10.00
- 6.1037 10 25 exp 536 ------- 0 10.0 25.0 1 68 -5.00 5.00 10.00 -10.00
r 6.1327 5 20 exp 536 ------- 0 5.0 20.0 2 62 -10.00 10.00 5.00 -5.00
+ 6.1363 26 11 exp 536 ------- 0 26.1 11.1 2 69 11.00 -11.00 -4.00 4.00
- 6.1363 26 11 exp 536 ------- 0 26.1 11.1 2 69 11.00 -11.00 -4.00 4.00
r 6.1480 13 28 exp 536 ------- 0 13.0 28.0 2 63 -2.00 2.00 13.00 -13.00
+ 6.1831 30 15 exp 536 ------- 0 30.1 15.1 2 70 15.00 -15.00 0.00 0.00
- 6.1831 30 15 exp 536 ------- 0 30.1 15.1 2 70 15.00 -15.00 0.00 0.00
r 6.2147 18 3 exp 536 ------- 0 18.1 3.1 2 64 3.00 -3.00 -12.00 12.00
+ 6.2240 9 24 exp 536 ------- 0 9.0 24.0 2 71 -6.00 6.00 9.00 -9.00
- 6.2240 9 24 exp 536 ------- 0 9.0 24.0 2 71 -6.00 6.00 9.00 -9.00
r 6.2623 19 4 exp 536 ------- 0 19.1 4.1 1 65 4.00 -4.00 -11.00 11.00
r 6.3136 27 12 exp 536 ------- 0 27.1 12.1 2 66 12.00 -12.00 -3.00 3.00
r 6.3288 23 8 exp 536 ------- 0 23.1 8.1 2 67 8.00 -8.00 -7.00 7.00
+ 6.3411 21 6 exp 536 ------- 0 21.1 6.1 2 72 6.00 -6.00 -9.00 9.00
- 6.3411 21 6 exp 536 ------- 0 21.1 6.1 2 72 6.00 -6.00 -9.00 9.00
r 6.3456 10 25 exp 536 ------- 0 10.0 25.0 1 68 -5.00 5.00 10.00 -10.00
r 6.3782 26 11 exp 536 ------- 0 26.1 11.1 2 69 11.00 -11.00 -4.00 4.00
+ 6.4134 29 14 exp 536 ------- 0 29.1 14.1 2 73 14.00 -14.00 -1.00 1.00
- 6.4134 29 14 exp 536 ------- 0 29.1 14.1 2 73 14.00 -14.00 -1.00 1.00
r 6.4257 30 15 exp 536 ------- 0 30.1 15.1 2 70 15.00 -15.00 0.00 0.00
+ 6.4606 16 1 exp 536 ------- 0 16.1 1.1 2 74 1.00 -1.00 -14.00 14.00
- 6.4606 16 1 exp 536 ------- 0 16.1 1.1 2 74 1.00 -1.00 -14.00 14.00
r 6.4658 9 24 exp 536 ------- 0 9.0 24.0 2 71 -6.00 6.00 9.00 -9.00
+ 6.4718 11 26 exp 536 ------- 0 11.0 26.0 2 75 -4.00 4.00 11.00 -11.00
- 6.4718 11 26 exp 536 ------- 0 11.0 26.0 2 75 -4.00 4.00 11.00 -11.00
+ 6.4777 28 13 exp 536 ------- 0 28.1 13.1 2 76 13.00 -13.00 -2.00 2.00
r 6.5830 21 6 exp 536 ------- 0 21.1 6.1 2 72 6.00 -6.00 -9.00 9.00
r 6.6558 29 14 exp 536 ------- 0 29.1 14.1 2 73 14.00 -14.00 -1.00 1.00
r 6.7030 16 1 exp 536 ------- 0 16.1 1.1 2 74 1.00 -1.00 -14.00 14.00
r 6.7138 11 26 exp 536 ------- 0 11.0 26.0 2 75 -4.00 4.00 11.00 -11.00
+ 6.7582 3 18 exp 536 ------- 0 3.0 18.0 2 77 -12.00 12.00 3.00 -3.00
- 6.7582 3 18 exp 536 ------- 0 3.0 18.0 2 77 -12.00 12.00 3.00 -3.00
r 6.8147 28 13 exp 536 ------- 0 28.1 13.1 0 14 13.00 -13.00 -2.00 2.00
- 6.8159 28 13 exp 536 ------- 0 28.1 13.1 1 45 13.00 -13.00 -2.00 2.00
+ 6.9737 24 9 exp 536 ------- 0 24.1 9.1 1 78 9.00 -9.00 -6.00 6.00
- 6.9737 24 9 exp 536 ------- 0 24.1 9.1 1 78 9.00 -9.00 -6.00 6.00
+ 6.9773 12 27 exp 536 ------- 0 12.0 27.0 2 79 -3.00 3.00 12.00 -12.00
- 6.9773 12 27 exp 536 ------- 0 12.0 27.0 2 79 -3.00 3.00 12.00 -12.00
+ 6.9845 8 23 exp 536 ------- 0 8.0 23.0 2 80 -7.00 7.00 8.00 -8.00
- 6.9845 8 23 exp 536 ------- 0 8.0 23.0 2 80 -7.00 7.00 8.00 -8.00
r 7.0003 3 18 exp 536 ------- 0 3.0 18.0 2 77 -12.00 12.00 3.00 -3.00
r 7.0581 28 13 exp 536 ------- 0 28.1 13.1 1 45 13.00 -13.00 -2.00 2.00
- 7.0594 28 13 exp 536 ------- 0 28.1 13.1 2 76 13.00 -13.00 -2.00 2.00
+ 7.1064 17 2 exp 536 ------- 0 17.1 2.1 2 81 2.00 -2.00 -13.00 13.00
- 7.1064 17 2 exp 536 ------- 0 17.1 2.1 2 81 2.00 -2.00 -13.00 13.00
+ 7.1175 15 30 exp 536 ------- 0 15.0 30.0 2 82 0.00 0.00 15.00 -15.00
- 7.1175 15 30 exp 536 ------- 0 15.0 30.0 2 82 0.00 0.00 15.00 -15.00
+ 7.1684 14 29 exp 536 ------- 0 14.0 29.0 3 83 -1.00 1.00 14.00 -14.00
- 7.1684 14 29 exp 536 ------- 0 14.0 29.0 3 83 -1.00 1.00 14.00 -14.00
r 7.2155 24 9 exp 536 ------- 0 24.1 9.1 1 78 9.00 -9.00 -6.00 6.00
r 7.2194 12 27 exp 536 ------- 0 12.0 27.0 2 79 -3.00 3.00 12.00 -12.00
r 7.2263 8 23 exp 536 ------- 0 8.0 23.0 2 80 -7.00 7.00 8.00 -8.00
+ 7.2967 2 17 exp 536 ------- 0 2.0 17.0 2 84 -13.00 13.00 2.00 -2.00
- 7.2967 2 17 exp 536 ------- 0 2.0 17.0 2 84 -13.00 13.00 2.00 -2.00
r 7.3016 28 13 exp 536 ------- 0 28.1 13.1 2 76 13.00 -13.00 -2.00 2.00
r 7.3486 17 2 exp 536 ------- 0 17.1 2.1 2 81 2.00 -2.00 -13.00 13.00
r 7.3601 15 30 exp 536 ------- 0 15.0 30.0 2 82 0.00 0.00 15.00 -15.00
+ 7.4037 7 22 exp 536 ------- 0 7.0 22.0 2 85 -8.00 8.00 7.00 -7.00
- 7.4037 7 22 exp 536 ------- 0 7.0 22.0 2 85 -8.00 8.00 7.00 -7.00
r 7.4108 14 29 exp 536 ------- 0 14.0 29.0 3 83 -1.00 1.00 14.00 -14.00
+ 7.4282 13 28 exp 536 ------- 0 13.0 28.0 3 86 -2.00 2.00 13.00 -13.00
- 7.4282 13 28 exp 536 ------- 0 13.0 28.0 3 86 -2.00 2.00 13.00 -13.00
+ 7.4926 5 20 exp 536 ------- 0 5.0 20.0 3 87 -10.00 10.00 5.00 -5.00
- 7.4926 5 20 exp 536 ------- 0 5.0 20.0 3 87 -10.00 10.00 5.00 -5.00
r 7.5389 2 17 exp 536 ------- 0 2.0 17.0 2 84 -13.00 13.00 2.00 -2.00
+ 7.5933 23 8 exp 536 ------- 0 23.1 8.1 3 88 8.00 -8.00 -7.00 7.00
- 7.5933 23 8 exp 536 ------- 0 23.1 8.1 3 88 8.00 -8.00 -7.00 7.00
+ 7.5957 6 21 exp 536 ------- 0 6.0 21.0 3 89 -9.00 9.00 6.00 -6.00
- 7.5957 6 21 exp 536 ------- 0 6.0 21.0 3 89 -9.00 9.00 6.00 -6.00
+ 7.5959 27 12 exp 536 ------- 0 27.1 12.1 3 90 12.00 -12.00 -3.00 3.00
- 7.5959 27 12 exp 536 ------- 0 27.1 12.1 3 90 12.00 -12.00 -3.00 3.00
r 7.6455 7 22 exp 536 ------- 0 7.0 22.0 2 85 -8.00 8.00 7.00 -7.00
+ 7.6486 10 25 exp 536 ------- 0 10.0 25.0 2 91 -5.00 5.00 10.00 -10.00
- 7.6486 10 25 exp 536 ------- 0 10.0 25.0 2 91 -5.00 5.00 10.00 -10.00
r 7.6704 13 28 exp 536 ------- 0 13.0 28.0 3 86 -2.00 2.00 13.00 -13.00
+ 7.7068 18 3 exp 536 ------- 0 18.1 3.1 3 92 3.00 -3.00 -12.00 12.00
- 7.7068 18 3 exp 536 ------- 0 18.1 3.1 3 92 3.00 -3.00 -12.00 12.00
+ 7.7219 19 4 exp 536 ------- 0 19.1 4.1 2 93 4.00 -4.00 -11.00 11.00
- 7.7219 19 4 exp 536 ------- 0 19.1 4.1 2 93 4.00 -4.00 -11.00 11.00
r 7.7345 5 20 exp 536 ------- 0 5.0 20.0 3 87 -10.00 10.00 5.00 -5.00
+ 7.7603 25 10 exp 536 ------- 0 25.1 10.1 2 94 10.00 -10.00 -5.00 5.00
- 7.7603 25 10 exp 536 ------- 0 25.1 10.1 2 94 10.00 -10.00 -5.00 5.00
+ 7.8337 1 16 exp 536 ------- 0 1.0 16.0 3 95 -14.00 14.00 1.00 -1.00
- 7.8337 1 16 exp 536 ------- 0 1.0 16.0 3 95 -14.00 14.00 1.00 -1.00
r 7.8351 23 8 exp 536 ------- 0 23.1 8.1 3 88 8.00 -8.00 -7.00 7.00
c 7.8357 27 12 exp 536 ------- 0 27.1 12.1 3 90 12.00 -12.00 -3.00 3.00
c 7.8360 6 21 exp 536 ------- 0 6.0 21.0 3 89 -9.00 9.00 6.00 -6.00
r 7.8905 10 25 exp 536 ------- 0 10.0 25.0 2 91 -5.00 5.00 10.00 -10.00
+ 7.9086 22 7 exp 536 ------- 0 22.1 7.1 2 96 7.00 -7.00 -8.00 8.00
- 7.9086 22 7 exp 536 ------- 0 22.1 7.1 2 96 7.00 -7.00 -8.00 8.00
+ 7.9458 21 6 exp 536 ------- 0 21.1 6.1 3 97 6.00 -6.00 -9.00 9.00
- 7.9458 21 6 exp 536 ------- 0 21.1 6.1 3 97 6.00 -6.00 -9.00 9.00
r 7.9489 18 3 exp 536 ------- 0 18.1 3.1 3 92 3.00 -3.00 -12.00 12.00
+ 7.9606 28 13 exp 536 ------- 0 28.1 13.1 3 98 13.00 -13.00 -2.00 2.00
- 7.9606 28 13 exp 536 ------- 0 28.1 13.1 3 98 13.00 -13.00 -2.00 2.00
r 7.9638 19 4 exp 536 ------- 0 19.1 4.1 2 93 4.00 -4.00 -11.00 11.00
+ 7.9823 30 15 exp 536 ------- 0 30.1 15.1 3 99 15.00 -15.00 0.00 0.00
- 7.9823 30 15 exp 536 ------- 0 30.1 15.1 3 99 15.00 -15.00 0.00 0.00
r 8.0022 25 10 exp 536 ------- 0 25.1 10.1 2 94 10.00 -10.00 -5.00 5.00
r 8.0761 1 16 exp 536 ------- 0 1.0 16.0 3 95 -14.00 14.00 1.00 -1.00
r 8.1504 22 7 exp 536 ------- 0 22.1 7.1 2 96 7.00 -7.00 -8.00 8.00
r 8.1877 21 6 exp 536 ------- 0 21.1 6.1 3 97 6.00 -6.00 -9.00 9.00
+ 8.2021 29 14 exp 536 ------- 0 29.1 14.1 3 100 14.00 -14.00 -1.00 1.00
- 8.2021 29 14 exp 536 ------- 0 29.1 14.1 3 100 14.00 -14.00 -1.00 1.00
r 8.2029 28 13 exp 536 ------- 0 28.1 13.1 3 98 13.00 -13.00 -2.00 2.00
r 8.2249 30 15 exp 536 ------- 0 30.1 15.1 3 99 15.00 -15.00 0.00 0.00
+ 8.3084 9 24 exp 536 ------- 0 9.0 24.0 3 101 -6.00 6.00 9.00 -9.00
- 8.3084 9 24 exp 536 ------- 0 9.0 24.0 3 101 -6.00 6.00 9.00 -9.00
+ 8.3426 26 11 exp 536 ------- 0 26.1 11.1 3 102 11.00 -11.00 -4.00 4.00
- 8.3426 26 11 exp 536 ------- 0 26.1 11.1 3 102 11.00 -11.00 -4.00 4.00
+ 8.3450 4 19 exp 536 ------- 0 4.0 19.0 3 103 -11.00 11.00 4.00 -4.00
- 8.3450 4 19 exp 536 ------- 0 4.0 19.0 3 103 -11.00 11.00 4.00 -4.00
+ 8.4066 12 27 exp 536 ------- 0 12.0 27.0 3 104 -3.00 3.00 12.00 -12.00
- 8.4066 12 27 exp 536 ------- 0 12.0 27.0 3 104 -3.00 3.00 12.00 -12.00
+ 8.4094 24 9 exp 536 ------- 0 24.1 9.1 2 105 9.00 -9.00 -6.00 6.00
- 8.4094 24 9 exp 536 ------- 0 24.1 9.1 2 105 9.00 -9.00 -6.00 6.00
r 8.4445 29 14 exp 536 ------- 0 29.1 14.1 3 100 14.00 -14.00 -1.00 1.00
r 8.5503 9 24 exp 536 ------- 0 9.0 24.0 3 101 -6.00 6.00 9.00 -9.00
+ 8.5571 3 18 exp 536 ------- 0 3.0 18.0 3 106 -12.00 12.00 3.00 -3.00
- 8.5571 3 18 exp 536 ------- 0 3.0 18.0 3 106 -12.00 12.00 3.00 -3.00
+ 8.5675 11 26 exp 536 ------- 0 11.0 26.0 3 107 -4.00 4.00 11.00 -11.00
- 8.5675 11 26 exp 536 ------- 0 11.0 26.0 3 107 -4.00 4.00 11.00 -11.00
r 8.5846 26 11 exp 536 ------- 0 26.1 11.1 3 102 11.00 -11.00 -4.00 4.00
r 8.5870 4 19 exp 536 ------- 0 4.0 19.0 3 103 -11.00 11.00 4.00 -4.00
+ 8.5931 20 5 exp 536 ------- 0 20.1 5.1 3 108 5.00 -5.00 -10.00 10.00
- 8.5931 20 5 exp 536 ------- 0 20.1 5.1 3 108 5.00 -5.00 -10.00 10.00
r 8.6487 12 27 exp 536 ------- 0 12.0 27.0 3 104 -3.00 3.00 12.00 -12.00
r 8.6513 24 9 exp 536 ------- 0 24.1 9.1 2 105 9.00 -9.00 -6.00 6.00
+ 8.7553 8 23 exp 536 ------- 0 8.0 23.0 3 109 -7.00 7.00 8.00 -8.00
- 8.7553 8 23 exp 536 ------- 0 8.0 23.0 3 109 -7.00 7.00 8.00 -8.00
r 8.7992 3 18 exp 536 ------- 0 3.0 18.0 3 106 -12.00 12.00 3.00 -3.00
r 8.8095 11 26 exp 536 ------- 0 11.0 26.0 3 107 -4.00 4.00 11.00 -11.00
r 8.8350 20 5 exp 536 ------- 0 20.1 5.1 3 108 5.00 -5.00 -10.00 10.00
r 8.9971 8 23 exp 536 ------- 0 8.0 23.0 3 109 -7.00 7.00 8.00 -8.00
+ 9.0048 17 2 exp 536 ------- 0 17.1 2.1 3 110 2.00 -2.00 -13.00 13.00
- 9.0048 17 2 exp 536 ------- 0 17.1 2.1 3 110 2.00 -2.00 -13.00 13.00
+ 9.0628 7 22 exp 536 ------- 0 7.0 22.0 3 111 -8.00 8.00 7.00 -7.00
- 9.0628 7 22 exp 536 ------- 0 7.0 22.0 3 111 -8.00 8.00 7.00 -7.00
+ 9.0642 15 30 exp 536 ------- 0 15.0 30.0 3 112 0.00 0.00 15.00 -15.00
- 9.0642 15 30 exp 536 ------- 0 15.0 30.0 3 112 0.00 0.00 15.00 -15.00
+ 9.0780 10 25 exp 536 ------- 0 10.0 25.0 3 113 -5.00 5.00 10.00 -10.00
- 9.0780 10 25 exp 536 ------- 0 10.0 25.0 3 113 -5.00 5.00 10.00 -10.00
+ 9.1512 6 21 exp 536 ------- 0 6.0 21.0 4 114 -9.00 9.00 6.00 -6.00
r 9.2471 17 2 exp 536 ------- 0 17.1 2.1 3 110 2.00 -2.00 -13.00 13.00
r 9.2724 27 12 exp 536 ------- 0 27.1 12.1 3 90 12.00 -12.00 -3.00 3.00
c 9.3034 7 22 exp 536 ------- 0 7.0 22.0 3 111 -8.00 8.00 7.00 -7.00
c 9.3047 15 30 exp 536 ------- 0 15.0 30.0 3 112 0.00 0.00 15.00 -15.00
+ 9.3137 18 3 exp 536 ------- 0 18.1 3.1 4 115 3.00 -3.00 -12.00 12.00
- 9.3137 18 3 exp 536 ------- 0 18.1 3.1 4 115 3.00 -3.00 -12.00 12.00
r 9.3199 10 25 exp 536 ------- 0 10.0 25.0 3 113 -5.00 5.00 10.00 -10.00
+ 9.3300 27 12 exp 536 ------- 0 27.1 12.1 4 116 12.00 -12.00 -3.00 3.00
- 9.3300 27 12 exp 536 ------- 0 27.1 12.1 4 116 12.00 -12.00 -3.00 3.00
+ 9.4614 25 10 exp 536 ------- 0 25.1 10.1 3 117 10.00 -10.00 -5.00 5.00
- 9.4614 25 10 exp 536 ------- 0 25.1 10.1 3 117 10.00 -10.00 -5.00 5.00
+ 9.4628 30 15 exp 536 ------- 0 30.1 15.1 4 118 15.00 -15.00 0.00 0.00
- 9.4628 30 15 exp 536 ------- 0 30.1 15.1 4 118 15.00 -15.00 0.00 0.00
+ 9.4650 28 13 exp 536 ------- 0 28.1 13.1 4 119 13.00 -13.00 -2.00 2.00
- 9.4650 28 13 exp 536 ------- 0 28.1 13.1 4 119 13.00 -13.00 -2.00 2.00
+ 9.4781 19 4 exp 536 ------- 0 19.1 4.1 3 120 4.00 -4.00 -11.00 11.00
- 9.4781 19 4 exp 536 ------- 0 19.1 4.1 3 120 4.00 -4.00 -11.00 11.00
+ 9.5127 23 8 exp 536 ------- 0 23.1 8.1 4 121 8.00 -8.00 -7.00 7.00
- 9.5127 23 8 exp 536 ------- 0 23.1 8.1 4 121 8.00 -8.00 -7.00 7.00
+ 9.5150 5 20 exp 536 ------- 0 5.0 20.0 4 122 -10.00 10.00 5.00 -5.00
- 9.5150 5 20 exp 536 ------- 0 5.0 20.0 4 122 -10.00 10.00 5.00 -5.00
r 9.5558 18 3 exp 536 ------- 0 18.1 3.1 4 115 3.00 -3.00 -12.00 12.00
r 9.5721 27 12 exp 536 ------- 0 27.1 12.1 4 116 12.00 -12.00 -3.00 3.00
+ 9.6756 2 17 exp 536 ------- 0 2.0 17.0 3 123 -13.00 13.00 2.00 -2.00
- 9.6756 2 17 exp 536 ------- 0 2.0 17.0 3 123 -13.00 13.00 2.00 -2.00
r 9.7033 25 10 exp 536 ------- 0 25.1 10.1 3 117 10.00 -10.00 -5.00 5.00
c 9.7050 30 15 exp 536 ------- 0 30.1 15.1 4 118 15.00 -15.00 0.00 0.00
c 9.7050 28 13 exp 536 ------- 0 28.1 13.1 4 119 13.00 -13.00 -2.00 2.00
+ 9.7122 22 7 exp 536 ------- 0 22.1 7.1 3 124 7.00 -7.00 -8.00 8.00
- 9.7122 22 7 exp 536 ------- 0 22.1 7.1 3 124 7.00 -7.00 -8.00 8.00
+ 9.7188 21 6 exp 536 ------- 0 21.1 6.1 4 125 6.00 -6.00 -9.00 9.00
- 9.7188 21 6 exp 536 ------- 0 21.1 6.1 4 125 6.00 -6.00 -9.00 9.00
r 9.7200 19 4 exp 536 ------- 0 19.1 4.1 3 120 4.00 -4.00 -11.00 11.00
r 9.7546 23 8 exp 536 ------- 0 23.1 8.1 4 121 8.00 -8.00 -7.00 7.00
r 9.7569 5 20 exp 536 ------- 0 5.0 20.0 4 122 -10.00 10.00 5.00 -5.00
r 9.9178 2 17 exp 536 ------- 0 2.0 17.0 3 123 -13.00 13.00 2.00 -2.00
+ 9.9203 1 16 exp 536 ------- 0 1.0 16.0 4 126 -14.00 14.00 1.00 -1.00
- 9.9203 1 16 exp 536 ------- 0 1.0 16.0 4 126 -14.00 14.00 1.00 -1.00
r 9.9540 22 7 exp 536 ------- 0 22.1 7.1 3 124 7.00 -7.00 -8.00 8.00
r 9.9606 21 6 exp 536 ------- 0 21.1 6.1 4 125 6.00 -6.00 -9.00 9.00
+ 9.9671 29 14 exp 536 ------- 0 29.1 14.1 4 127 14.00 -14.00 -1.00 1.00
- 9.9671 29 14 exp 536 ------- 0 29.1 14.1 4 127 14.00 -14.00 -1.00 1.00
r 10.0822 30 15 exp 536 ------- 0 30.1 15.1 4 118 15.00 -15.00 0.00 0.00
+ 10.1017 12 27 exp 536 ------- 0 12.0 27.0 4 128 -3.00 3.00 12.00 -12.00
- 10.1017 12 27 exp 536 ------- 0 12.0 27.0 4 128 -3.00 3.00 12.00 -12.00
+ 10.1121 20 5 exp 536 ------- 0 20.1 5.1 4 129 5.00 -5.00 -10.00 10.00
- 10.1121 20 5 exp 536 ------- 0 20.1 5.1 4 129 5.00 -5.00 -10.00 10.00
+ 10.1157 24 9 exp 536 ------- 0 24.1 9.1 3 130 9.00 -9.00 -6.00 6.00
- 10.1157 24 9 exp 536 ------- 0 24.1 9.1 3 130 9.00 -9.00 -6.00 6.00
r 10.1224 28 13 exp 536 ------- 0 28.1 13.1 4 119 13.00 -13.00 -2.00 2.00
+ 10.1393 9 24 exp 536 ------- 0 9.0 24.0 4 131 -6.00 6.00 9.00 -9.00
- 10.1393 9 24 exp 536 ------- 0 9.0 24.0 4 131 -6.00 6.00 9.00 -9.00
r 10.1627 1 16 exp 536 ------- 0 1.0 16.0 4 126 -14.00 14.00 1.00 -1.00
r 10.2095 29 14 exp 536 ------- 0 29.1 14.1 4 127 14.00 -14.00 -1.00 1.00
+ 10.2664 14 29 exp 536 ------- 0 14.0 29.0 4 132 -1.00 1.00 14.00 -14.00
- 10.2664 14 29 exp 536 ------- 0 14.0 29.0 4 132 -1.00 1.00 14.00 -14.00
r 10.3033 15 30 exp 536 ------- 0 15.0 30.0 3 112 0.00 0.00 15.00 -15.00
+ 10.3045 13 28 exp 536 ------- 0 13.0 28.0 4 133 -2.00 2.00 13.00 -13.00
- 10.3045 13 28 exp 536 ------- 0 13.0 28.0 4 133 -2.00 2.00 13.00 -13.00
+ 10.3082 16 1 exp 536 ------- 0 16.1 1.1 3 134 1.00 -1.00 -14.00 14.00
- 10.3082 16 1 exp 536 ------- 0 16.1 1.1 3 134 1.00 -1.00 -14.00 14.00
+ 10.3127 4 19 exp 536 ------- 0 4.0 19.0 4 135 -11.00 11.00 4.00 -4.00
- 10.3127 4 19 exp 536 ------- 0 4.0 19.0 4 135 -11.00 11.00 4.00 -4.00
r 10.3197 7 22 exp 536 ------- 0 7.0 22.0 3 111 -8.00 8.00 7.00 -7.00
r 10.3438 12 27 exp 536 ------- 0 12.0 27.0 4 128 -3.00 3.00 12.00 -12.00
+ 10.3510 11 26 exp 536 ------- 0 11.0 26.0 4 136 -4.00 4.00 11.00 -11.00
- 10.3510 11 26 exp 536 ------- 0 11.0 26.0 4 136 -4.00 4.00 11.00 -11.00
r 10.3540 20 5 exp 536 ------- 0 20.1 5.1 4 129 5.00 -5.00 -10.00 10.00
r 10.3575 24 9 exp 536 ------- 0 24.1 9.1 3 130 9.00 -9.00 -6.00 6.00
r 10.3811 9 24 exp 536 ------- 0 9.0 24.0 4 131 -6.00 6.00 9.00 -9.00
r 10.5088 14 29 exp 536 ------- 0 14.0 29.0 4 132 -1.00 1.00 14.00 -14.00
r 10.5468 13 28 exp 536 ------- 0 13.0 28.0 4 133 -2.00 2.00 13.00 -13.00
+ 10.5496 8 23 exp 536 ------- 0 8.0 23.0 4 137 -7.00 7.00 8.00 -8.00
- 10.5496 8 23 exp 536 ------- 0 8.0 23.0 4 137 -7.00 7.00 8.00 -8.00
r 10.5506 16 1 exp 536 ------- 0 16.1 1.1 3 134 1.00 -1.00 -14.00 14.00
r 10.5547 4 19 exp 536 ------- 0 4.0 19.0 4 135 -11.00 11.00 4.00 -4.00
+ 10.5723 7 22 exp 536 ------- 0 7.0 22.0 4 138 -8.00 8.00 7.00 -7.00
- 10.5723 7 22 exp 536 ------- 0 7.0 22.0 4 138 -8.00 8.00 7.00 -7.00
r 10.5929 11 26 exp 536 ------- 0 11.0 26.0 4 136 -4.00 4.00 11.00 -11.00
+ 10.6891 17 2 exp 536 ------- 0 17.1 2.1 4 139 2.00 -2.00 -13.00 13.00