+ 1.0000 12 11 cbr 536 ------- 0 12.0 13.0 0 0 37.90 -122.30 0.00 -100.00
- 1.0000 12 11 cbr 536 ------- 0 12.0 13.0 0 0 37.90 -122.30 0.00 -100.00
r 1.1289 12 11 cbr 536 ------- 0 12.0 13.0 0 0 37.90 -122.30 0.00 -100.00
+ 1.1289 11 13 cbr 536 ------- 0 12.0 13.0 0 0 0.00 -100.00 42.30 -71.10
- 1.1289 11 13 cbr 536 ------- 0 12.0 13.0 0 0 0.00 -100.00 42.30 -71.10
r 1.2597 11 13 cbr 536 ------- 0 12.0 13.0 0 0 0.00 -100.00 42.30 -71.10
+ 61.0100 12 11 cbr 536 ------- 0 12.0 13.0 1 1 37.90 -122.30 0.00 -100.00
- 61.0100 12 11 cbr 536 ------- 0 12.0 13.0 1 1 37.90 -122.30 0.00 -100.00
r 61.1389 12 11 cbr 536 ------- 0 12.0 13.0 1 1 37.90 -122.30 0.00 -100.00
+ 61.1389 11 13 cbr 536 ------- 0 12.0 13.0 1 1 0.00 -100.00 42.30 -71.10
- 61.1389 11 13 cbr 536 ------- 0 12.0 13.0 1 1 0.00 -100.00 42.30 -71.10
r 61.2697 11 13 cbr 536 ------- 0 12.0 13.0 1 1 0.00 -100.00 42.30 -71.10
+ 121.0200 12 11 cbr 536 ------- 0 12.0 13.0 2 2 37.90 -122.30 0.00 -100.00
- 121.0200 12 11 cbr 536 ------- 0 12.0 13.0 2 2 37.90 -122.30 0.00 -100.00
r 121.1489 12 11 cbr 536 ------- 0 12.0 13.0 2 2 37.90 -122.30 0.00 -100.00
+ 121.1489 11 13 cbr 536 ------- 0 12.0 13.0 2 2 0.00 -100.00 42.30 -71.10
- 121.1489 11 13 cbr 536 ------- 0 12.0 13.0 2 2 0.00 -100.00 42.30 -71.10
r 121.2797 11 13 cbr 536 ------- 0 12.0 13.0 2 2 0.00 -100.00 42.30 -71.10
+ 181.0300 12 11 cbr 536 ------- 0 12.0 13.0 3 3 37.90 -122.30 0.00 -100.00
- 181.0300 12 11 cbr 536 ------- 0 12.0 13.0 3 3 37.90 -122.30 0.00 -100.00
r 181.1589 12 11 cbr 536 ------- 0 12.0 13.0 3 3 37.90 -122.30 0.00 -100.00
+ 181.1589 11 13 cbr 536 ------- 0 12.0 13.0 3 3 0.00 -100.00 42.30 -71.10
- 181.1589 11 13 cbr 536 ------- 0 12.0 13.0 3 3 0.00 -100.00 42.30 -71.10
r 181.2897 11 13 cbr 536 ------- 0 12.0 13.0 3 3 0.00 -100.00 42.30 -71.10
+ 241.0400 12 11 cbr 536 ------- 0 12.0 13.0 4 4 37.90 -122.30 0.00 -100.00
- 241.0400 12 11 cbr 536 ------- 0 12.0 13.0 4 4 37.90 -122.30 0.00 -100.00
r 241.1689 12 11 cbr 536 ------- 0 12.0 13.0 4 4 37.90 -122.30 0.00 -100.00
+ 241.1689 11 13 cbr 536 ------- 0 12.0 13.0 4 4 0.00 -100.00 42.30 -71.10
- 241.1689 11 13 cbr 536 ------- 0 12.0 13.0 4 4 0.00 -100.00 42.30 -71.10
r 241.2997 11 13 cbr 536 ------- 0 12.0 13.0 4 4 0.00 -100.00 42.30 -71.10
+ 301.0500 12 11 cbr 536 ------- 0 12.0 13.0 5 5 37.90 -122.30 0.00 -100.00
- 301.0500 12 11 cbr 536 ------- 0 12.0 13.0 5 5 37.90 -122.30 0.00 -100.00
r 301.1789 12 11 cbr 536 ------- 0 12.0 13.0 5 5 37.90 -122.30 0.00 -100.00
+ 301.1789 11 13 cbr 536 ------- 0 12.0 13.0 5 5 0.00 -100.00 42.30 -71.10
- 301.1789 11 13 cbr 536 ------- 0 12.0 13.0 5 5 0.00 -100.00 42.30 -71.10
r 301.3097 11 13 cbr 536 ------- 0 12.0 13.0 5 5 0.00 -100.00 42.30 -71.10
+ 305.0000 14 10 cbr 536 ------- 1 14.0 15.0 0 6 0.00 10.00 -14.51 -1.27
- 305.0000 14 10 cbr 536 ------- 1 14.0 15.0 0 6 0.00 10.00 -14.51 -1.27
r 305.0106 14 10 cbr 536 ------- 1 14.0 15.0 0 6 0.00 10.00 -14.51 -1.27
+ 305.0106 10 0 cbr 536 ------- 1 14.0 15.0 0 6 -14.51 -1.27 18.22 -1.27
- 305.0106 10 0 cbr 536 ------- 1 14.0 15.0 0 6 -14.51 -1.27 18.22 -1.27
r 305.0242 10 0 cbr 536 ------- 1 14.0 15.0 0 6 -14.51 -1.27 18.22 -1.27
+ 305.0242 0 15 cbr 536 ------- 1 14.0 15.0 0 6 18.22 -1.27 0.00 -10.00
- 305.0242 0 15 cbr 536 ------- 1 14.0 15.0 0 6 18.22 -1.27 0.00 -10.00
r 305.0354 0 15 cbr 536 ------- 1 14.0 15.0 0 6 18.22 -1.27 0.00 -10.00
+ 361.0600 12 11 cbr 536 ------- 0 12.0 13.0 6 7 37.90 -122.30 0.00 -100.00
- 361.0600 12 11 cbr 536 ------- 0 12.0 13.0 6 7 37.90 -122.30 0.00 -100.00
r 361.1889 12 11 cbr 536 ------- 0 12.0 13.0 6 7 37.90 -122.30 0.00 -100.00
+ 361.1889 11 13 cbr 536 ------- 0 12.0 13.0 6 7 0.00 -100.00 42.30 -71.10
- 361.1889 11 13 cbr 536 ------- 0 12.0 13.0 6 7 0.00 -100.00 42.30 -71.10
r 361.3197 11 13 cbr 536 ------- 0 12.0 13.0 6 7 0.00 -100.00 42.30 -71.10
+ 395.5000 14 10 cbr 536 ------- 1 14.0 15.0 1 8 0.00 10.00 -9.11 -1.65
- 395.5000 14 10 cbr 536 ------- 1 14.0 15.0 1 8 0.00 10.00 -9.11 -1.65
r 395.5093 14 10 cbr 536 ------- 1 14.0 15.0 1 8 0.00 10.00 -9.11 -1.65
+ 395.5093 10 15 cbr 536 ------- 1 14.0 15.0 1 8 -9.11 -1.65 0.00 -10.00
- 395.5093 10 15 cbr 536 ------- 1 14.0 15.0 1 8 -9.11 -1.65 0.00 -10.00
r 395.5177 10 15 cbr 536 ------- 1 14.0 15.0 1 8 -9.11 -1.65 0.00 -10.00
+ 421.0700 12 11 cbr 536 ------- 0 12.0 13.0 7 9 37.90 -122.30 0.00 -100.00
- 421.0700 12 11 cbr 536 ------- 0 12.0 13.0 7 9 37.90 -122.30 0.00 -100.00
r 421.1989 12 11 cbr 536 ------- 0 12.0 13.0 7 9 37.90 -122.30 0.00 -100.00
+ 421.1989 11 13 cbr 536 ------- 0 12.0 13.0 7 9 0.00 -100.00 42.30 -71.10
- 421.1989 11 13 cbr 536 ------- 0 12.0 13.0 7 9 0.00 -100.00 42.30 -71.10
r 421.3297 11 13 cbr 536 ------- 0 12.0 13.0 7 9 0.00 -100.00 42.30 -71.10
+ 481.0800 12 11 cbr 536 ------- 0 12.0 13.0 8 10 37.90 -122.30 0.00 -100.00
- 481.0800 12 11 cbr 536 ------- 0 12.0 13.0 8 10 37.90 -122.30 0.00 -100.00
r 481.2089 12 11 cbr 536 ------- 0 12.0 13.0 8 10 37.90 -122.30 0.00 -100.00
+ 481.2089 11 13 cbr 536 ------- 0 12.0 13.0 8 10 0.00 -100.00 42.30 -71.10
- 481.2089 11 13 cbr 536 ------- 0 12.0 13.0 8 10 0.00 -100.00 42.30 -71.10
r 481.3397 11 13 cbr 536 ------- 0 12.0 13.0 8 10 0.00 -100.00 42.30 -71.10
+ 486.0000 14 10 cbr 536 ------- 1 14.0 15.0 2 11 0.00 10.00 -3.70 -2.03
- 486.0000 14 10 cbr 536 ------- 1 14.0 15.0 2 11 0.00 10.00 -3.70 -2.03
r 486.0085 14 10 cbr 536 ------- 1 14.0 15.0 2 11 0.00 10.00 -3.70 -2.03
+ 486.0085 10 15 cbr 536 ------- 1 14.0 15.0 2 11 -3.70 -2.03 0.00 -10.00
- 486.0085 10 15 cbr 536 ------- 1 14.0 15.0 2 11 -3.70 -2.03 0.00 -10.00
r 486.0158 10 15 cbr 536 ------- 1 14.0 15.0 2 11 -3.70 -2.03 0.00 -10.00
+ 541.0900 12 11 cbr 536 ------- 0 12.0 13.0 9 12 37.90 -122.30 0.00 -100.00
- 541.0900 12 11 cbr 536 ------- 0 12.0 13.0 9 12 37.90 -122.30 0.00 -100.00
r 541.2189 12 11 cbr 536 ------- 0 12.0 13.0 9 12 37.90 -122.30 0.00 -100.00
+ 541.2189 11 13 cbr 536 ------- 0 12.0 13.0 9 12 0.00 -100.00 42.30 -71.10
- 541.2189 11 13 cbr 536 ------- 0 12.0 13.0 9 12 0.00 -100.00 42.30 -71.10
r 541.3497 11 13 cbr 536 ------- 0 12.0 13.0 9 12 0.00 -100.00 42.30 -71.10
+ 576.5000 14 10 cbr 536 ------- 1 14.0 15.0 3 13 0.00 10.00 1.71 -2.41
- 576.5000 14 10 cbr 536 ------- 1 14.0 15.0 3 13 0.00 10.00 1.71 -2.41
r 576.5085 14 10 cbr 536 ------- 1 14.0 15.0 3 13 0.00 10.00 1.71 -2.41
+ 576.5085 10 15 cbr 536 ------- 1 14.0 15.0 3 13 1.71 -2.41 0.00 -10.00
- 576.5085 10 15 cbr 536 ------- 1 14.0 15.0 3 13 1.71 -2.41 0.00 -10.00
r 576.5155 10 15 cbr 536 ------- 1 14.0 15.0 3 13 1.71 -2.41 0.00 -10.00
+ 601.1000 12 11 cbr 536 ------- 0 12.0 13.0 10 14 37.90 -122.30 0.00 -100.00
- 601.1000 12 11 cbr 536 ------- 0 12.0 13.0 10 14 37.90 -122.30 0.00 -100.00
r 601.2289 12 11 cbr 536 ------- 0 12.0 13.0 10 14 37.90 -122.30 0.00 -100.00
+ 601.2289 11 13 cbr 536 ------- 0 12.0 13.0 10 14 0.00 -100.00 42.30 -71.10
- 601.2289 11 13 cbr 536 ------- 0 12.0 13.0 10 14 0.00 -100.00 42.30 -71.10
r 601.3597 11 13 cbr 536 ------- 0 12.0 13.0 10 14 0.00 -100.00 42.30 -71.10
+ 661.1100 12 11 cbr 536 ------- 0 12.0 13.0 11 15 37.90 -122.30 0.00 -100.00
- 661.1100 12 11 cbr 536 ------- 0 12.0 13.0 11 15 37.90 -122.30 0.00 -100.00
r 661.2389 12 11 cbr 536 ------- 0 12.0 13.0 11 15 37.90 -122.30 0.00 -100.00
+ 661.2389 11 13 cbr 536 ------- 0 12.0 13.0 11 15 0.00 -100.00 42.30 -71.10
- 661.2389 11 13 cbr 536 ------- 0 12.0 13.0 11 15 0.00 -100.00 42.30 -71.10
r 661.3697 11 13 cbr 536 ------- 0 12.0 13.0 11 15 0.00 -100.00 42.30 -71.10
+ 667.0000 14 10 cbr 536 ------- 1 14.0 15.0 4 16 0.00 10.00 7.11 -2.79
- 667.0000 14 10 cbr 536 ------- 1 14.0 15.0 4 16 0.00 10.00 7.11 -2.79
r 667.0092 14 10 cbr 536 ------- 1 14.0 15.0 4 16 0.00 10.00 7.11 -2.79
+ 667.0092 10 15 cbr 536 ------- 1 14.0 15.0 4 16 7.11 -2.79 0.00 -10.00
- 667.0092 10 15 cbr 536 ------- 1 14.0 15.0 4 16 7.11 -2.79 0.00 -10.00
r 667.0169 10 15 cbr 536 ------- 1 14.0 15.0 4 16 7.11 -2.79 0.00 -10.00
+ 721.1200 12 11 cbr 536 ------- 0 12.0 13.0 12 17 37.90 -122.30 0.00 -100.00
- 721.1200 12 11 cbr 536 ------- 0 12.0 13.0 12 17 37.90 -122.30 0.00 -100.00
r 721.2489 12 11 cbr 536 ------- 0 12.0 13.0 12 17 37.90 -122.30 0.00 -100.00
+ 721.2489 11 13 cbr 536 ------- 0 12.0 13.0 12 17 0.00 -100.00 42.30 -71.10
- 721.2489 11 13 cbr 536 ------- 0 12.0 13.0 12 17 0.00 -100.00 42.30 -71.10
r 721.3797 11 13 cbr 536 ------- 0 12.0 13.0 12 17 0.00 -100.00 42.30 -71.10
+ 757.5000 14 10 cbr 536 ------- 1 14.0 15.0 5 18 0.00 10.00 12.52 -3.16
- 757.5000 14 10 cbr 536 ------- 1 14.0 15.0 5 18 0.00 10.00 12.52 -3.16
r 757.5105 14 10 cbr 536 ------- 1 14.0 15.0 5 18 0.00 10.00 12.52 -3.16
+ 757.5105 10 15 cbr 536 ------- 1 14.0 15.0 5 18 12.52 -3.16 0.00 -10.00
- 757.5105 10 15 cbr 536 ------- 1 14.0 15.0 5 18 12.52 -3.16 0.00 -10.00
r 757.5196 10 15 cbr 536 ------- 1 14.0 15.0 5 18 12.52 -3.16 0.00 -10.00
+ 781.1300 12 11 cbr 536 ------- 0 12.0 13.0 13 19 37.90 -122.30 0.00 -100.00
- 781.1300 12 11 cbr 536 ------- 0 12.0 13.0 13 19 37.90 -122.30 0.00 -100.00
r 781.2589 12 11 cbr 536 ------- 0 12.0 13.0 13 19 37.90 -122.30 0.00 -100.00
+ 781.2589 11 13 cbr 536 ------- 0 12.0 13.0 13 19 0.00 -100.00 42.30 -71.10
- 781.2589 11 13 cbr 536 ------- 0 12.0 13.0 13 19 0.00 -100.00 42.30 -71.10
r 781.3897 11 13 cbr 536 ------- 0 12.0 13.0 13 19 0.00 -100.00 42.30 -71.10
+ 841.1400 12 11 cbr 536 ------- 0 12.0 13.0 14 20 37.90 -122.30 0.00 -100.00
- 841.1400 12 11 cbr 536 ------- 0 12.0 13.0 14 20 37.90 -122.30 0.00 -100.00
r 841.2689 12 11 cbr 536 ------- 0 12.0 13.0 14 20 37.90 -122.30 0.00 -100.00
+ 841.2689 11 13 cbr 536 ------- 0 12.0 13.0 14 20 0.00 -100.00 42.30 -71.10
- 841.2689 11 13 cbr 536 ------- 0 12.0 13.0 14 20 0.00 -100.00 42.30 -71.10
r 841.3997 11 13 cbr 536 ------- 0 12.0 13.0 14 20 0.00 -100.00 42.30 -71.10
d 848.0000 14 -2 cbr 536 ------- 1 14.0 15.0 6 21 0.00 10.00 -999.00 -999.00
+ 901.1500 12 11 cbr 536 ------- 0 12.0 13.0 15 22 37.90 -122.30 0.00 -100.00
- 901.1500 12 11 cbr 536 ------- 0 12.0 13.0 15 22 37.90 -122.30 0.00 -100.00
r 901.2789 12 11 cbr 536 ------- 0 12.0 13.0 15 22 37.90 -122.30 0.00 -100.00
+ 901.2789 11 13 cbr 536 ------- 0 12.0 13.0 15 22 0.00 -100.00 42.30 -71.10
- 901.2789 11 13 cbr 536 ------- 0 12.0 13.0 15 22 0.00 -100.00 42.30 -71.10
r 901.4097 11 13 cbr 536 ------- 0 12.0 13.0 15 22 0.00 -100.00 42.30 -71.10
+ 938.5000 14 9 cbr 536 ------- 1 14.0 15.0 7 23 0.00 10.00 -9.39 -3.92
- 938.5000 14 9 cbr 536 ------- 1 14.0 15.0 7 23 0.00 10.00 -9.39 -3.92
r 938.5100 14 9 cbr 536 ------- 1 14.0 15.0 7 23 0.00 10.00 -9.39 -3.92
+ 938.5100 9 15 cbr 536 ------- 1 14.0 15.0 7 23 -9.39 -3.92 0.00 -10.00
- 938.5100 9 15 cbr 536 ------- 1 14.0 15.0 7 23 -9.39 -3.92 0.00 -10.00
r 938.5180 9 15 cbr 536 ------- 1 14.0 15.0 7 23 -9.39 -3.92 0.00 -10.00
+ 961.1600 12 11 cbr 536 ------- 0 12.0 13.0 16 24 37.90 -122.30 0.00 -100.00
- 961.1600 12 11 cbr 536 ------- 0 12.0 13.0 16 24 37.90 -122.30 0.00 -100.00
r 961.2889 12 11 cbr 536 ------- 0 12.0 13.0 16 24 37.90 -122.30 0.00 -100.00
+ 961.2889 11 13 cbr 536 ------- 0 12.0 13.0 16 24 0.00 -100.00 42.30 -71.10
- 961.2889 11 13 cbr 536 ------- 0 12.0 13.0 16 24 0.00 -100.00 42.30 -71.10
r 961.4197 11 13 cbr 536 ------- 0 12.0 13.0 16 24 0.00 -100.00 42.30 -71.10
+ 1021.1700 12 11 cbr 536 ------- 0 12.0 13.0 17 25 37.90 -122.30 0.00 -100.00
- 1021.1700 12 11 cbr 536 ------- 0 12.0 13.0 17 25 37.90 -122.30 0.00 -100.00
r 1021.2989 12 11 cbr 536 ------- 0 12.0 13.0 17 25 37.90 -122.30 0.00 -100.00
+ 1021.2989 11 13 cbr 536 ------- 0 12.0 13.0 17 25 0.00 -100.00 42.30 -71.10
- 1021.2989 11 13 cbr 536 ------- 0 12.0 13.0 17 25 0.00 -100.00 42.30 -71.10
r 1021.4297 11 13 cbr 536 ------- 0 12.0 13.0 17 25 0.00 -100.00 42.30 -71.10
+ 1029.0000 14 9 cbr 536 ------- 1 14.0 15.0 8 26 0.00 10.00 -3.99 -4.30
- 1029.0000 14 9 cbr 536 ------- 1 14.0 15.0 8 26 0.00 10.00 -3.99 -4.30
r 1029.0093 14 9 cbr 536 ------- 1 14.0 15.0 8 26 0.00 10.00 -3.99 -4.30
+ 1029.0093 9 15 cbr 536 ------- 1 14.0 15.0 8 26 -3.99 -4.30 0.00 -10.00
- 1029.0093 9 15 cbr 536 ------- 1 14.0 15.0 8 26 -3.99 -4.30 0.00 -10.00
r 1029.0160 9 15 cbr 536 ------- 1 14.0 15.0 8 26 -3.99 -4.30 0.00 -10.00
+ 1081.1800 12 11 cbr 536 ------- 0 12.0 13.0 18 27 37.90 -122.30 0.00 -100.00
- 1081.1800 12 11 cbr 536 ------- 0 12.0 13.0 18 27 37.90 -122.30 0.00 -100.00
r 1081.3089 12 11 cbr 536 ------- 0 12.0 13.0 18 27 37.90 -122.30 0.00 -100.00
+ 1081.3089 11 13 cbr 536 ------- 0 12.0 13.0 18 27 0.00 -100.00 42.30 -71.10
- 1081.3089 11 13 cbr 536 ------- 0 12.0 13.0 18 27 0.00 -100.00 42.30 -71.10
r 1081.4397 11 13 cbr 536 ------- 0 12.0 13.0 18 27 0.00 -100.00 42.30 -71.10
+ 1119.5000 14 9 cbr 536 ------- 1 14.0 15.0 9 28 0.00 10.00 1.42 -4.68
- 1119.5000 14 9 cbr 536 ------- 1 14.0 15.0 9 28 0.00 10.00 1.42 -4.68
r 1119.5093 14 9 cbr 536 ------- 1 14.0 15.0 9 28 0.00 10.00 1.42 -4.68
+ 1119.5093 9 15 cbr 536 ------- 1 14.0 15.0 9 28 1.42 -4.68 0.00 -10.00
- 1119.5093 9 15 cbr 536 ------- 1 14.0 15.0 9 28 1.42 -4.68 0.00 -10.00
r 1119.5156 9 15 cbr 536 ------- 1 14.0 15.0 9 28 1.42 -4.68 0.00 -10.00
+ 1141.1900 12 11 cbr 536 ------- 0 12.0 13.0 19 29 37.90 -122.30 0.00 -100.00
- 1141.1900 12 11 cbr 536 ------- 0 12.0 13.0 19 29 37.90 -122.30 0.00 -100.00
r 1141.3189 12 11 cbr 536 ------- 0 12.0 13.0 19 29 37.90 -122.30 0.00 -100.00
+ 1141.3189 11 13 cbr 536 ------- 0 12.0 13.0 19 29 0.00 -100.00 42.30 -71.10
- 1141.3189 11 13 cbr 536 ------- 0 12.0 13.0 19 29 0.00 -100.00 42.30 -71.10
r 1141.4497 11 13 cbr 536 ------- 0 12.0 13.0 19 29 0.00 -100.00 42.30 -71.10
+ 1201.2000 12 11 cbr 536 ------- 0 12.0 13.0 20 30 37.90 -122.30 0.00 -100.00
- 1201.2000 12 11 cbr 536 ------- 0 12.0 13.0 20 30 37.90 -122.30 0.00 -100.00
r 1201.3289 12 11 cbr 536 ------- 0 12.0 13.0 20 30 37.90 -122.30 0.00 -100.00
+ 1201.3289 11 13 cbr 536 ------- 0 12.0 13.0 20 30 0.00 -100.00 42.30 -71.10
- 1201.3289 11 13 cbr 536 ------- 0 12.0 13.0 20 30 0.00 -100.00 42.30 -71.10
r 1201.4597 11 13 cbr 536 ------- 0 12.0 13.0 20 30 0.00 -100.00 42.30 -71.10
+ 1210.0000 14 9 cbr 536 ------- 1 14.0 15.0 10 31 0.00 10.00 6.83 -5.06
- 1210.0000 14 9 cbr 536 ------- 1 14.0 15.0 10 31 0.00 10.00 6.83 -5.06
r 1210.0099 14 9 cbr 536 ------- 1 14.0 15.0 10 31 0.00 10.00 6.83 -5.06
+ 1210.0099 9 15 cbr 536 ------- 1 14.0 15.0 10 31 6.83 -5.06 0.00 -10.00
- 1210.0099 9 15 cbr 536 ------- 1 14.0 15.0 10 31 6.83 -5.06 0.00 -10.00
r 1210.0171 9 15 cbr 536 ------- 1 14.0 15.0 10 31 6.83 -5.06 0.00 -10.00
+ 1261.2100 12 11 cbr 536 ------- 0 12.0 13.0 21 32 37.90 -122.30 0.00 -100.00
- 1261.2100 12 11 cbr 536 ------- 0 12.0 13.0 21 32 37.90 -122.30 0.00 -100.00
r 1261.3389 12 11 cbr 536 ------- 0 12.0 13.0 21 32 37.90 -122.30 0.00 -100.00
+ 1261.3389 11 13 cbr 536 ------- 0 12.0 13.0 21 32 0.00 -100.00 42.30 -71.10
- 1261.3389 11 13 cbr 536 ------- 0 12.0 13.0 21 32 0.00 -100.00 42.30 -71.10
r 1261.4697 11 13 cbr 536 ------- 0 12.0 13.0 21 32 0.00 -100.00 42.30 -71.10
+ 1300.5000 14 9 cbr 536 ------- 1 14.0 15.0 11 33 0.00 10.00 12.23 -5.43
- 1300.5000 14 9 cbr 536 ------- 1 14.0 15.0 11 33 0.00 10.00 12.23 -5.43
r 1300.5110 14 9 cbr 536 ------- 1 14.0 15.0 11 33 0.00 10.00 12.23 -5.43
+ 1300.5110 9 15 cbr 536 ------- 1 14.0 15.0 11 33 12.23 -5.43 0.00 -10.00
- 1300.5110 9 15 cbr 536 ------- 1 14.0 15.0 11 33 12.23 -5.43 0.00 -10.00
r 1300.5197 9 15 cbr 536 ------- 1 14.0 15.0 11 33 12.23 -5.43 0.00 -10.00
+ 1321.2200 12 11 cbr 536 ------- 0 12.0 13.0 22 34 37.90 -122.30 0.00 -100.00
- 1321.2200 12 11 cbr 536 ------- 0 12.0 13.0 22 34 37.90 -122.30 0.00 -100.00
r 1321.3489 12 11 cbr 536 ------- 0 12.0 13.0 22 34 37.90 -122.30 0.00 -100.00
+ 1321.3489 11 13 cbr 536 ------- 0 12.0 13.0 22 34 0.00 -100.00 42.30 -71.10
- 1321.3489 11 13 cbr 536 ------- 0 12.0 13.0 22 34 0.00 -100.00 42.30 -71.10
r 1321.4797 11 13 cbr 536 ------- 0 12.0 13.0 22 34 0.00 -100.00 42.30 -71.10
+ 1381.2300 12 11 cbr 536 ------- 0 12.0 13.0 23 35 37.90 -122.30 0.00 -100.00
- 1381.2300 12 11 cbr 536 ------- 0 12.0 13.0 23 35 37.90 -122.30 0.00 -100.00
r 1381.3589 12 11 cbr 536 ------- 0 12.0 13.0 23 35 37.90 -122.30 0.00 -100.00
+ 1381.3589 11 13 cbr 536 ------- 0 12.0 13.0 23 35 0.00 -100.00 42.30 -71.10
- 1381.3589 11 13 cbr 536 ------- 0 12.0 13.0 23 35 0.00 -100.00 42.30 -71.10
r 1381.4897 11 13 cbr 536 ------- 0 12.0 13.0 23 35 0.00 -100.00 42.30 -71.10
d 1391.0000 14 -2 cbr 536 ------- 1 14.0 15.0 12 36 0.00 10.00 -999.00 -999.00
+ 1441.2400 12 11 cbr 536 ------- 0 12.0 13.0 24 37 37.90 -122.30 0.00 -100.00
- 1441.2400 12 11 cbr 536 ------- 0 12.0 13.0 24 37 37.90 -122.30 0.00 -100.00
r 1441.3689 12 11 cbr 536 ------- 0 12.0 13.0 24 37 37.90 -122.30 0.00 -100.00
+ 1441.3689 11 13 cbr 536 ------- 0 12.0 13.0 24 37 0.00 -100.00 42.30 -71.10
- 1441.3689 11 13 cbr 536 ------- 0 12.0 13.0 24 37 0.00 -100.00 42.30 -71.10
r 1441.4997 11 13 cbr 536 ------- 0 12.0 13.0 24 37 0.00 -100.00 42.30 -71.10
+ 1481.5000 14 8 cbr 536 ------- 1 14.0 15.0 13 38 0.00 10.00 -9.69 -6.19
- 1481.5000 14 8 cbr 536 ------- 1 14.0 15.0 13 38 0.00 10.00 -9.69 -6.19
r 1481.5108 14 8 cbr 536 ------- 1 14.0 15.0 13 38 0.00 10.00 -9.69 -6.19
+ 1481.5108 8 15 cbr 536 ------- 1 14.0 15.0 13 38 -9.69 -6.19 0.00 -10.00
- 1481.5108 8 15 cbr 536 ------- 1 14.0 15.0 13 38 -9.69 -6.19 0.00 -10.00
r 1481.5185 8 15 cbr 536 ------- 1 14.0 15.0 13 38 -9.69 -6.19 0.00 -10.00
+ 1501.2500 12 11 cbr 536 ------- 0 12.0 13.0 25 39 37.90 -122.30 0.00 -100.00
- 1501.2500 12 11 cbr 536 ------- 0 12.0 13.0 25 39 37.90 -122.30 0.00 -100.00
r 1501.3789 12 11 cbr 536 ------- 0 12.0 13.0 25 39 37.90 -122.30 0.00 -100.00
+ 1501.3789 11 13 cbr 536 ------- 0 12.0 13.0 25 39 0.00 -100.00 42.30 -71.10
- 1501.3789 11 13 cbr 536 ------- 0 12.0 13.0 25 39 0.00 -100.00 42.30 -71.10
r 1501.5097 11 13 cbr 536 ------- 0 12.0 13.0 25 39 0.00 -100.00 42.30 -71.10
+ 1561.2600 12 11 cbr 536 ------- 0 12.0 13.0 26 40 37.90 -122.30 0.00 -100.00
- 1561.2600 12 11 cbr 536 ------- 0 12.0 13.0 26 40 37.90 -122.30 0.00 -100.00
r 1561.3889 12 11 cbr 536 ------- 0 12.0 13.0 26 40 37.90 -122.30 0.00 -100.00
+ 1561.3889 11 13 cbr 536 ------- 0 12.0 13.0 26 40 0.00 -100.00 42.30 -71.10
- 1561.3889 11 13 cbr 536 ------- 0 12.0 13.0 26 40 0.00 -100.00 42.30 -71.10
r 1561.5197 11 13 cbr 536 ------- 0 12.0 13.0 26 40 0.00 -100.00 42.30 -71.10
+ 1572.0000 14 8 cbr 536 ------- 1 14.0 15.0 14 41 0.00 10.00 -4.28 -6.57
- 1572.0000 14 8 cbr 536 ------- 1 14.0 15.0 14 41 0.00 10.00 -4.28 -6.57
r 1572.0101 14 8 cbr 536 ------- 1 14.0 15.0 14 41 0.00 10.00 -4.28 -6.57
+ 1572.0101 8 15 cbr 536 ------- 1 14.0 15.0 14 41 -4.28 -6.57 0.00 -10.00
- 1572.0101 8 15 cbr 536 ------- 1 14.0 15.0 14 41 -4.28 -6.57 0.00 -10.00
r 1572.0165 8 15 cbr 536 ------- 1 14.0 15.0 14 41 -4.28 -6.57 0.00 -10.00
+ 1621.2700 12 11 cbr 536 ------- 0 12.0 13.0 27 42 37.90 -122.30 0.00 -100.00
- 1621.2700 12 11 cbr 536 ------- 0 12.0 13.0 27 42 37.90 -122.30 0.00 -100.00
r 1621.3989 12 11 cbr 536 ------- 0 12.0 13.0 27 42 37.90 -122.30 0.00 -100.00
+ 1621.3989 11 13 cbr 536 ------- 0 12.0 13.0 27 42 0.00 -100.00 42.30 -71.10
- 1621.3989 11 13 cbr 536 ------- 0 12.0 13.0 27 42 0.00 -100.00 42.30 -71.10
r 1621.5297 11 13 cbr 536 ------- 0 12.0 13.0 27 42 0.00 -100.00 42.30 -71.10
+ 1662.5000 14 8 cbr 536 ------- 1 14.0 15.0 15 43 0.00 10.00 1.12 -6.95
- 1662.5000 14 8 cbr 536 ------- 1 14.0 15.0 15 43 0.00 10.00 1.12 -6.95
r 1662.5101 14 8 cbr 536 ------- 1 14.0 15.0 15 43 0.00 10.00 1.12 -6.95
+ 1662.5101 8 15 cbr 536 ------- 1 14.0 15.0 15 43 1.12 -6.95 0.00 -10.00
- 1662.5101 8 15 cbr 536 ------- 1 14.0 15.0 15 43 1.12 -6.95 0.00 -10.00
r 1662.5159 8 15 cbr 536 ------- 1 14.0 15.0 15 43 1.12 -6.95 0.00 -10.00
+ 1681.2800 12 11 cbr 536 ------- 0 12.0 13.0 28 44 37.90 -122.30 0.00 -100.00
- 1681.2800 12 11 cbr 536 ------- 0 12.0 13.0 28 44 37.90 -122.30 0.00 -100.00
r 1681.4089 12 11 cbr 536 ------- 0 12.0 13.0 28 44 37.90 -122.30 0.00 -100.00
+ 1681.4089 11 13 cbr 536 ------- 0 12.0 13.0 28 44 0.00 -100.00 42.30 -71.10
- 1681.4089 11 13 cbr 536 ------- 0 12.0 13.0 28 44 0.00 -100.00 42.30 -71.10
r 1681.5397 11 13 cbr 536 ------- 0 12.0 13.0 28 44 0.00 -100.00 42.30 -71.10
+ 1741.2900 12 11 cbr 536 ------- 0 12.0 13.0 29 45 37.90 -122.30 0.00 -100.00
- 1741.2900 12 11 cbr 536 ------- 0 12.0 13.0 29 45 37.90 -122.30 0.00 -100.00
r 1741.4189 12 11 cbr 536 ------- 0 12.0 13.0 29 45 37.90 -122.30 0.00 -100.00
+ 1741.4189 11 13 cbr 536 ------- 0 12.0 13.0 29 45 0.00 -100.00 42.30 -71.10
- 1741.4189 11 13 cbr 536 ------- 0 12.0 13.0 29 45 0.00 -100.00 42.30 -71.10
r 1741.5497 11 13 cbr 536 ------- 0 12.0 13.0 29 45 0.00 -100.00 42.30 -71.10
+ 1753.0000 14 8 cbr 536 ------- 1 14.0 15.0 16 46 0.00 10.00 6.53 -7.32
- 1753.0000 14 8 cbr 536 ------- 1 14.0 15.0 16 46 0.00 10.00 6.53 -7.32
r 1753.0106 14 8 cbr 536 ------- 1 14.0 15.0 16 46 0.00 10.00 6.53 -7.32
+ 1753.0106 8 15 cbr 536 ------- 1 14.0 15.0 16 46 6.53 -7.32 0.00 -10.00
- 1753.0106 8 15 cbr 536 ------- 1 14.0 15.0 16 46 6.53 -7.32 0.00 -10.00
r 1753.0174 8 15 cbr 536 ------- 1 14.0 15.0 16 46 6.53 -7.32 0.00 -10.00
+ 1801.3000 12 11 cbr 536 ------- 0 12.0 13.0 30 47 37.90 -122.30 0.00 -100.00
- 1801.3000 12 11 cbr 536 ------- 0 12.0 13.0 30 47 37.90 -122.30 0.00 -100.00
r 1801.4289 12 11 cbr 536 ------- 0 12.0 13.0 30 47 37.90 -122.30 0.00 -100.00
+ 1801.4289 11 13 cbr 536 ------- 0 12.0 13.0 30 47 0.00 -100.00 42.30 -71.10
- 1801.4289 11 13 cbr 536 ------- 0 12.0 13.0 30 47 0.00 -100.00 42.30 -71.10
r 1801.5597 11 13 cbr 536 ------- 0 12.0 13.0 30 47 0.00 -100.00 42.30 -71.10
d 1843.5000 14 -2 cbr 536 ------- 1 14.0 15.0 17 48 0.00 10.00 -999.00 -999.00
+ 1861.3100 12 11 cbr 536 ------- 0 12.0 13.0 31 49 37.90 -122.30 0.00 -100.00
- 1861.3100 12 11 cbr 536 ------- 0 12.0 13.0 31 49 37.90 -122.30 0.00 -100.00
r 1861.4389 12 11 cbr 536 ------- 0 12.0 13.0 31 49 37.90 -122.30 0.00 -100.00
+ 1861.4389 11 13 cbr 536 ------- 0 12.0 13.0 31 49 0.00 -100.00 42.30 -71.10
- 1861.4389 11 13 cbr 536 ------- 0 12.0 13.0 31 49 0.00 -100.00 42.30 -71.10
r 1861.5697 11 13 cbr 536 ------- 0 12.0 13.0 31 49 0.00 -100.00 42.30 -71.10
+ 1921.3200 12 11 cbr 536 ------- 0 12.0 13.0 32 50 37.90 -122.30 0.00 -100.00
- 1921.3200 12 11 cbr 536 ------- 0 12.0 13.0 32 50 37.90 -122.30 0.00 -100.00
r 1921.4489 12 11 cbr 536 ------- 0 12.0 13.0 32 50 37.90 -122.30 0.00 -100.00
+ 1921.4489 11 13 cbr 536 ------- 0 12.0 13.0 32 50 0.00 -100.00 42.30 -71.10
- 1921.4489 11 13 cbr 536 ------- 0 12.0 13.0 32 50 0.00 -100.00 42.30 -71.10
r 1921.5797 11 13 cbr 536 ------- 0 12.0 13.0 32 50 0.00 -100.00 42.30 -71.10
d 1934.0000 14 -2 cbr 536 ------- 1 14.0 15.0 18 51 0.00 10.00 -999.00 -999.00
+ 1981.3300 12 11 cbr 536 ------- 0 12.0 13.0 33 52 37.90 -122.30 0.00 -100.00
- 1981.3300 12 11 cbr 536 ------- 0 12.0 13.0 33 52 37.90 -122.30 0.00 -100.00
r 1981.4589 12 11 cbr 536 ------- 0 12.0 13.0 33 52 37.90 -122.30 0.00 -100.00
+ 1981.4589 11 13 cbr 536 ------- 0 12.0 13.0 33 52 0.00 -100.00 42.30 -71.10
- 1981.4589 11 13 cbr 536 ------- 0 12.0 13.0 33 52 0.00 -100.00 42.30 -71.10
r 1981.5897 11 13 cbr 536 ------- 0 12.0 13.0 33 52 0.00 -100.00 42.30 -71.10
d 2024.5000 14 -2 cbr 536 ------- 1 14.0 15.0 19 53 0.00 10.00 -999.00 -999.00
+ 2041.3400 12 11 cbr 536 ------- 0 12.0 13.0 34 54 37.90 -122.30 0.00 -100.00
- 2041.3400 12 11 cbr 536 ------- 0 12.0 13.0 34 54 37.90 -122.30 0.00 -100.00
r 2041.4689 12 11 cbr 536 ------- 0 12.0 13.0 34 54 37.90 -122.30 0.00 -100.00
+ 2041.4689 11 13 cbr 536 ------- 0 12.0 13.0 34 54 0.00 -100.00 42.30 -71.10
- 2041.4689 11 13 cbr 536 ------- 0 12.0 13.0 34 54 0.00 -100.00 42.30 -71.10
r 2041.5997 11 13 cbr 536 ------- 0 12.0 13.0 34 54 0.00 -100.00 42.30 -71.10
+ 2101.3500 12 11 cbr 536 ------- 0 12.0 13.0 35 55 37.90 -122.30 0.00 -100.00
- 2101.3500 12 11 cbr 536 ------- 0 12.0 13.0 35 55 37.90 -122.30 0.00 -100.00
r 2101.4789 12 11 cbr 536 ------- 0 12.0 13.0 35 55 37.90 -122.30 0.00 -100.00
+ 2101.4789 11 13 cbr 536 ------- 0 12.0 13.0 35 55 0.00 -100.00 42.30 -71.10
- 2101.4789 11 13 cbr 536 ------- 0 12.0 13.0 35 55 0.00 -100.00 42.30 -71.10
r 2101.6097 11 13 cbr 536 ------- 0 12.0 13.0 35 55 0.00 -100.00 42.30 -71.10
+ 2115.0000 14 7 cbr 536 ------- 1 14.0 15.0 20 56 0.00 10.00 -4.58 -8.84
- 2115.0000 14 7 cbr 536 ------- 1 14.0 15.0 20 56 0.00 10.00 -4.58 -8.84
r 2115.0110 14 7 cbr 536 ------- 1 14.0 15.0 20 56 0.00 10.00 -4.58 -8.84
+ 2115.0110 7 15 cbr 536 ------- 1 14.0 15.0 20 56 -4.58 -8.84 0.00 -10.00
- 2115.0110 7 15 cbr 536 ------- 1 14.0 15.0 20 56 -4.58 -8.84 0.00 -10.00
r 2115.0171 7 15 cbr 536 ------- 1 14.0 15.0 20 56 -4.58 -8.84 0.00 -10.00
+ 2161.3600 12 11 cbr 536 ------- 0 12.0 13.0 36 57 37.90 -122.30 0.00 -100.00
- 2161.3600 12 11 cbr 536 ------- 0 12.0 13.0 36 57 37.90 -122.30 0.00 -100.00
r 2161.4889 12 11 cbr 536 ------- 0 12.0 13.0 36 57 37.90 -122.30 0.00 -100.00
+ 2161.4889 11 13 cbr 536 ------- 0 12.0 13.0 36 57 0.00 -100.00 42.30 -71.10
- 2161.4889 11 13 cbr 536 ------- 0 12.0 13.0 36 57 0.00 -100.00 42.30 -71.10
r 2161.6197 11 13 cbr 536 ------- 0 12.0 13.0 36 57 0.00 -100.00 42.30 -71.10
+ 2205.5000 14 7 cbr 536 ------- 1 14.0 15.0 21 58 0.00 10.00 0.83 -9.21
- 2205.5000 14 7 cbr 536 ------- 1 14.0 15.0 21 58 0.00 10.00 0.83 -9.21
r 2205.5109 14 7 cbr 536 ------- 1 14.0 15.0 21 58 0.00 10.00 0.83 -9.21
+ 2205.5109 7 15 cbr 536 ------- 1 14.0 15.0 21 58 0.83 -9.21 0.00 -10.00
- 2205.5109 7 15 cbr 536 ------- 1 14.0 15.0 21 58 0.83 -9.21 0.00 -10.00
r 2205.5165 7 15 cbr 536 ------- 1 14.0 15.0 21 58 0.83 -9.21 0.00 -10.00
+ 2221.3700 12 11 cbr 536 ------- 0 12.0 13.0 37 59 37.90 -122.30 0.00 -100.00
- 2221.3700 12 11 cbr 536 ------- 0 12.0 13.0 37 59 37.90 -122.30 0.00 -100.00
r 2221.4989 12 11 cbr 536 ------- 0 12.0 13.0 37 59 37.90 -122.30 0.00 -100.00
+ 2221.4989 11 13 cbr 536 ------- 0 12.0 13.0 37 59 0.00 -100.00 42.30 -71.10
- 2221.4989 11 13 cbr 536 ------- 0 12.0 13.0 37 59 0.00 -100.00 42.30 -71.10
r 2221.6297 11 13 cbr 536 ------- 0 12.0 13.0 37 59 0.00 -100.00 42.30 -71.10
+ 2281.3800 12 11 cbr 536 ------- 0 12.0 13.0 38 60 37.90 -122.30 0.00 -100.00
- 2281.3800 12 11 cbr 536 ------- 0 12.0 13.0 38 60 37.90 -122.30 0.00 -100.00
r 2281.5089 12 11 cbr 536 ------- 0 12.0 13.0 38 60 37.90 -122.30 0.00 -100.00
+ 2281.5089 11 13 cbr 536 ------- 0 12.0 13.0 38 60 0.00 -100.00 42.30 -71.10
- 2281.5089 11 13 cbr 536 ------- 0 12.0 13.0 38 60 0.00 -100.00 42.30 -71.10
r 2281.6397 11 13 cbr 536 ------- 0 12.0 13.0 38 60 0.00 -100.00 42.30 -71.10
d 2296.0000 14 -2 cbr 536 ------- 1 14.0 15.0 22 61 0.00 10.00 -999.00 -999.00
+ 2341.3900 12 11 cbr 536 ------- 0 12.0 13.0 39 62 37.90 -122.30 0.00 -100.00
- 2341.3900 12 11 cbr 536 ------- 0 12.0 13.0 39 62 37.90 -122.30 0.00 -100.00
r 2341.5189 12 11 cbr 536 ------- 0 12.0 13.0 39 62 37.90 -122.30 0.00 -100.00
+ 2341.5189 11 13 cbr 536 ------- 0 12.0 13.0 39 62 0.00 -100.00 42.30 -71.10
- 2341.5189 11 13 cbr 536 ------- 0 12.0 13.0 39 62 0.00 -100.00 42.30 -71.10
r 2341.6497 11 13 cbr 536 ------- 0 12.0 13.0 39 62 0.00 -100.00 42.30 -71.10
d 2386.5000 14 -2 cbr 536 ------- 1 14.0 15.0 23 63 0.00 10.00 -999.00 -999.00
+ 2401.4000 12 11 cbr 536 ------- 0 12.0 13.0 40 64 37.90 -122.30 0.00 -100.00
- 2401.4000 12 11 cbr 536 ------- 0 12.0 13.0 40 64 37.90 -122.30 0.00 -100.00
r 2401.5289 12 11 cbr 536 ------- 0 12.0 13.0 40 64 37.90 -122.30 0.00 -100.00
+ 2401.5289 11 13 cbr 536 ------- 0 12.0 13.0 40 64 0.00 -100.00 42.30 -71.10
- 2401.5289 11 13 cbr 536 ------- 0 12.0 13.0 40 64 0.00 -100.00 42.30 -71.10
r 2401.6597 11 13 cbr 536 ------- 0 12.0 13.0 40 64 0.00 -100.00 42.30 -71.10
+ 2461.4100 12 11 cbr 536 ------- 0 12.0 13.0 41 65 37.90 -122.30 0.00 -100.00
- 2461.4100 12 11 cbr 536 ------- 0 12.0 13.0 41 65 37.90 -122.30 0.00 -100.00
r 2461.5389 12 11 cbr 536 ------- 0 12.0 13.0 41 65 37.90 -122.30 0.00 -100.00
+ 2461.5389 11 13 cbr 536 ------- 0 12.0 13.0 41 65 0.00 -100.00 42.30 -71.10
- 2461.5389 11 13 cbr 536 ------- 0 12.0 13.0 41 65 0.00 -100.00 42.30 -71.10
r 2461.6697 11 13 cbr 536 ------- 0 12.0 13.0 41 65 0.00 -100.00 42.30 -71.10
d 2477.0000 14 -2 cbr 536 ------- 1 14.0 15.0 24 66 0.00 10.00 -999.00 -999.00
+ 2521.4200 12 11 cbr 536 ------- 0 12.0 13.0 42 67 37.90 -122.30 0.00 -100.00
- 2521.4200 12 11 cbr 536 ------- 0 12.0 13.0 42 67 37.90 -122.30 0.00 -100.00
r 2521.5489 12 11 cbr 536 ------- 0 12.0 13.0 42 67 37.90 -122.30 0.00 -100.00
+ 2521.5489 11 13 cbr 536 ------- 0 12.0 13.0 42 67 0.00 -100.00 42.30 -71.10
- 2521.5489 11 13 cbr 536 ------- 0 12.0 13.0 42 67 0.00 -100.00 42.30 -71.10
r 2521.6797 11 13 cbr 536 ------- 0 12.0 13.0 42 67 0.00 -100.00 42.30 -71.10
d 2567.5000 14 -2 cbr 536 ------- 1 14.0 15.0 25 68 0.00 10.00 -999.00 -999.00
+ 2581.4300 12 11 cbr 536 ------- 0 12.0 13.0 43 69 37.90 -122.30 0.00 -100.00
- 2581.4300 12 11 cbr 536 ------- 0 12.0 13.0 43 69 37.90 -122.30 0.00 -100.00
r 2581.5589 12 11 cbr 536 ------- 0 12.0 13.0 43 69 37.90 -122.30 0.00 -100.00
+ 2581.5589 11 13 cbr 536 ------- 0 12.0 13.0 43 69 0.00 -100.00 42.30 -71.10
- 2581.5589 11 13 cbr 536 ------- 0 12.0 13.0 43 69 0.00 -100.00 42.30 -71.10
r 2581.6897 11 13 cbr 536 ------- 0 12.0 13.0 43 69 0.00 -100.00 42.30 -71.10
+ 2641.4400 12 11 cbr 536 ------- 0 12.0 13.0 44 70 37.90 -122.30 0.00 -100.00
- 2641.4400 12 11 cbr 536 ------- 0 12.0 13.0 44 70 37.90 -122.30 0.00 -100.00
r 2641.5689 12 11 cbr 536 ------- 0 12.0 13.0 44 70 37.90 -122.30 0.00 -100.00
+ 2641.5689 11 13 cbr 536 ------- 0 12.0 13.0 44 70 0.00 -100.00 42.30 -71.10
- 2641.5689 11 13 cbr 536 ------- 0 12.0 13.0 44 70 0.00 -100.00 42.30 -71.10
r 2641.6997 11 13 cbr 536 ------- 0 12.0 13.0 44 70 0.00 -100.00 42.30 -71.10
d 2658.0000 14 -2 cbr 536 ------- 1 14.0 15.0 26 71 0.00 10.00 -999.00 -999.00
+ 2701.4500 12 11 cbr 536 ------- 0 12.0 13.0 45 72 37.90 -122.30 0.00 -100.00
- 2701.4500 12 11 cbr 536 ------- 0 12.0 13.0 45 72 37.90 -122.30 0.00 -100.00
r 2701.5789 12 11 cbr 536 ------- 0 12.0 13.0 45 72 37.90 -122.30 0.00 -100.00
+ 2701.5789 11 13 cbr 536 ------- 0 12.0 13.0 45 72 0.00 -100.00 42.30 -71.10
- 2701.5789 11 13 cbr 536 ------- 0 12.0 13.0 45 72 0.00 -100.00 42.30 -71.10
r 2701.7097 11 13 cbr 536 ------- 0 12.0 13.0 45 72 0.00 -100.00 42.30 -71.10