+ 1.0000 12 11 cbr 536 ------- 0 12.0 13.0 0 0 37.90 -122.30 0.00 -100.00
- 1.0000 12 11 cbr 536 ------- 0 12.0 13.0 0 0 37.90 -122.30 0.00 -100.00
r 1.1289 12 11 cbr 536 ------- 0 12.0 13.0 0 0 37.90 -122.30 0.00 -100.00
+ 1.1289 11 13 cbr 536 ------- 0 12.0 13.0 0 0 0.00 -100.00 42.30 -71.10
- 1.1289 11 13 cbr 536 ------- 0 12.0 13.0 0 0 0.00 -100.00 42.30 -71.10
r 1.2597 11 13 cbr 536 ------- 0 12.0 13.0 0 0 0.00 -100.00 42.30 -71.10
+ 10 19 13 cbr 536 ------- 0 19.0 16.0 0 1
- 10 19 13 cbr 536 ------- 0 19.0 16.0 0 1
r 10.002858 19 13 cbr 536 ------- 0 19.0 16.0 0 1
+ 10.0029 13 11 cbr 536 ------- 0 19.0 16.0 0 1 42.30 -71.10 0.00 -100.00
- 10.0029 13 11 cbr 536 ------- 0 19.0 16.0 0 1 42.30 -71.10 0.00 -100.00
r 10.1337 13 11 cbr 536 ------- 0 19.0 16.0 0 1 42.30 -71.10 0.00 -100.00
+ 10.1337 11 12 cbr 536 ------- 0 19.0 16.0 0 1 0.00 -100.00 37.90 -122.30
- 10.1337 11 12 cbr 536 ------- 0 19.0 16.0 0 1 0.00 -100.00 37.90 -122.30
r 10.2626 11 12 cbr 536 ------- 0 19.0 16.0 0 1 0.00 -100.00 37.90 -122.30
+ 10.262599 12 17 cbr 536 ------- 0 19.0 16.0 0 1
- 10.262599 12 17 cbr 536 ------- 0 19.0 16.0 0 1
r 10.265456 12 17 cbr 536 ------- 0 19.0 16.0 0 1
+ 10.265456 17 16 cbr 536 ------- 0 19.0 16.0 0 1
- 10.265456 17 16 cbr 536 ------- 0 19.0 16.0 0 1
r 10.268314 17 16 cbr 536 ------- 0 19.0 16.0 0 1
+ 61.0100 12 11 cbr 536 ------- 0 12.0 13.0 1 2 37.90 -122.30 0.00 -100.00
- 61.0100 12 11 cbr 536 ------- 0 12.0 13.0 1 2 37.90 -122.30 0.00 -100.00
r 61.1389 12 11 cbr 536 ------- 0 12.0 13.0 1 2 37.90 -122.30 0.00 -100.00
+ 61.1389 11 13 cbr 536 ------- 0 12.0 13.0 1 2 0.00 -100.00 42.30 -71.10
- 61.1389 11 13 cbr 536 ------- 0 12.0 13.0 1 2 0.00 -100.00 42.30 -71.10
r 61.2697 11 13 cbr 536 ------- 0 12.0 13.0 1 2 0.00 -100.00 42.30 -71.10
+ 121.0200 12 11 cbr 536 ------- 0 12.0 13.0 2 3 37.90 -122.30 0.00 -100.00
- 121.0200 12 11 cbr 536 ------- 0 12.0 13.0 2 3 37.90 -122.30 0.00 -100.00
r 121.1489 12 11 cbr 536 ------- 0 12.0 13.0 2 3 37.90 -122.30 0.00 -100.00
+ 121.1489 11 13 cbr 536 ------- 0 12.0 13.0 2 3 0.00 -100.00 42.30 -71.10
- 121.1489 11 13 cbr 536 ------- 0 12.0 13.0 2 3 0.00 -100.00 42.30 -71.10
r 121.2797 11 13 cbr 536 ------- 0 12.0 13.0 2 3 0.00 -100.00 42.30 -71.10
+ 181.0300 12 11 cbr 536 ------- 0 12.0 13.0 3 4 37.90 -122.30 0.00 -100.00
- 181.0300 12 11 cbr 536 ------- 0 12.0 13.0 3 4 37.90 -122.30 0.00 -100.00
r 181.1589 12 11 cbr 536 ------- 0 12.0 13.0 3 4 37.90 -122.30 0.00 -100.00
+ 181.1589 11 13 cbr 536 ------- 0 12.0 13.0 3 4 0.00 -100.00 42.30 -71.10
- 181.1589 11 13 cbr 536 ------- 0 12.0 13.0 3 4 0.00 -100.00 42.30 -71.10
r 181.2897 11 13 cbr 536 ------- 0 12.0 13.0 3 4 0.00 -100.00 42.30 -71.10
+ 241.0400 12 11 cbr 536 ------- 0 12.0 13.0 4 5 37.90 -122.30 0.00 -100.00
- 241.0400 12 11 cbr 536 ------- 0 12.0 13.0 4 5 37.90 -122.30 0.00 -100.00
r 241.1689 12 11 cbr 536 ------- 0 12.0 13.0 4 5 37.90 -122.30 0.00 -100.00
+ 241.1689 11 13 cbr 536 ------- 0 12.0 13.0 4 5 0.00 -100.00 42.30 -71.10
- 241.1689 11 13 cbr 536 ------- 0 12.0 13.0 4 5 0.00 -100.00 42.30 -71.10
r 241.2997 11 13 cbr 536 ------- 0 12.0 13.0 4 5 0.00 -100.00 42.30 -71.10
+ 301.0500 12 11 cbr 536 ------- 0 12.0 13.0 5 6 37.90 -122.30 0.00 -100.00
- 301.0500 12 11 cbr 536 ------- 0 12.0 13.0 5 6 37.90 -122.30 0.00 -100.00
r 301.1789 12 11 cbr 536 ------- 0 12.0 13.0 5 6 37.90 -122.30 0.00 -100.00
+ 301.1789 11 13 cbr 536 ------- 0 12.0 13.0 5 6 0.00 -100.00 42.30 -71.10
- 301.1789 11 13 cbr 536 ------- 0 12.0 13.0 5 6 0.00 -100.00 42.30 -71.10
r 301.3097 11 13 cbr 536 ------- 0 12.0 13.0 5 6 0.00 -100.00 42.30 -71.10
+ 305.0000 14 10 cbr 536 ------- 1 14.0 15.0 0 7 0.00 10.00 -14.51 -1.27
- 305.0000 14 10 cbr 536 ------- 1 14.0 15.0 0 7 0.00 10.00 -14.51 -1.27
r 305.0106 14 10 cbr 536 ------- 1 14.0 15.0 0 7 0.00 10.00 -14.51 -1.27
+ 305.0106 10 0 cbr 536 ------- 1 14.0 15.0 0 7 -14.51 -1.27 18.22 -1.27
- 305.0106 10 0 cbr 536 ------- 1 14.0 15.0 0 7 -14.51 -1.27 18.22 -1.27
r 305.0242 10 0 cbr 536 ------- 1 14.0 15.0 0 7 -14.51 -1.27 18.22 -1.27
+ 305.0242 0 15 cbr 536 ------- 1 14.0 15.0 0 7 18.22 -1.27 0.00 -10.00
- 305.0242 0 15 cbr 536 ------- 1 14.0 15.0 0 7 18.22 -1.27 0.00 -10.00
r 305.0354 0 15 cbr 536 ------- 1 14.0 15.0 0 7 18.22 -1.27 0.00 -10.00
+ 310 19 13 cbr 536 ------- 0 19.0 16.0 1 8
- 310 19 13 cbr 536 ------- 0 19.0 16.0 1 8
r 310.002858 19 13 cbr 536 ------- 0 19.0 16.0 1 8
+ 310.0029 13 11 cbr 536 ------- 0 19.0 16.0 1 8 42.30 -71.10 0.00 -100.00
- 310.0029 13 11 cbr 536 ------- 0 19.0 16.0 1 8 42.30 -71.10 0.00 -100.00
r 310.1337 13 11 cbr 536 ------- 0 19.0 16.0 1 8 42.30 -71.10 0.00 -100.00
+ 310.1337 11 12 cbr 536 ------- 0 19.0 16.0 1 8 0.00 -100.00 37.90 -122.30
- 310.1337 11 12 cbr 536 ------- 0 19.0 16.0 1 8 0.00 -100.00 37.90 -122.30
r 310.2626 11 12 cbr 536 ------- 0 19.0 16.0 1 8 0.00 -100.00 37.90 -122.30
+ 310.262599 12 17 cbr 536 ------- 0 19.0 16.0 1 8
- 310.262599 12 17 cbr 536 ------- 0 19.0 16.0 1 8
r 310.265456 12 17 cbr 536 ------- 0 19.0 16.0 1 8
+ 310.265456 17 16 cbr 536 ------- 0 19.0 16.0 1 8
- 310.265456 17 16 cbr 536 ------- 0 19.0 16.0 1 8
r 310.268314 17 16 cbr 536 ------- 0 19.0 16.0 1 8
+ 361.0600 12 11 cbr 536 ------- 0 12.0 13.0 6 9 37.90 -122.30 0.00 -100.00
- 361.0600 12 11 cbr 536 ------- 0 12.0 13.0 6 9 37.90 -122.30 0.00 -100.00
r 361.1889 12 11 cbr 536 ------- 0 12.0 13.0 6 9 37.90 -122.30 0.00 -100.00
+ 361.1889 11 13 cbr 536 ------- 0 12.0 13.0 6 9 0.00 -100.00 42.30 -71.10
- 361.1889 11 13 cbr 536 ------- 0 12.0 13.0 6 9 0.00 -100.00 42.30 -71.10
r 361.3197 11 13 cbr 536 ------- 0 12.0 13.0 6 9 0.00 -100.00 42.30 -71.10
+ 395.5000 14 10 cbr 536 ------- 1 14.0 15.0 1 10 0.00 10.00 -9.11 -1.65
- 395.5000 14 10 cbr 536 ------- 1 14.0 15.0 1 10 0.00 10.00 -9.11 -1.65
r 395.5093 14 10 cbr 536 ------- 1 14.0 15.0 1 10 0.00 10.00 -9.11 -1.65
+ 395.5093 10 15 cbr 536 ------- 1 14.0 15.0 1 10 -9.11 -1.65 0.00 -10.00
- 395.5093 10 15 cbr 536 ------- 1 14.0 15.0 1 10 -9.11 -1.65 0.00 -10.00
r 395.5177 10 15 cbr 536 ------- 1 14.0 15.0 1 10 -9.11 -1.65 0.00 -10.00
+ 421.0700 12 11 cbr 536 ------- 0 12.0 13.0 7 11 37.90 -122.30 0.00 -100.00
- 421.0700 12 11 cbr 536 ------- 0 12.0 13.0 7 11 37.90 -122.30 0.00 -100.00
r 421.1989 12 11 cbr 536 ------- 0 12.0 13.0 7 11 37.90 -122.30 0.00 -100.00
+ 421.1989 11 13 cbr 536 ------- 0 12.0 13.0 7 11 0.00 -100.00 42.30 -71.10
- 421.1989 11 13 cbr 536 ------- 0 12.0 13.0 7 11 0.00 -100.00 42.30 -71.10
r 421.3297 11 13 cbr 536 ------- 0 12.0 13.0 7 11 0.00 -100.00 42.30 -71.10
+ 481.0800 12 11 cbr 536 ------- 0 12.0 13.0 8 12 37.90 -122.30 0.00 -100.00
- 481.0800 12 11 cbr 536 ------- 0 12.0 13.0 8 12 37.90 -122.30 0.00 -100.00
r 481.2089 12 11 cbr 536 ------- 0 12.0 13.0 8 12 37.90 -122.30 0.00 -100.00
+ 481.2089 11 13 cbr 536 ------- 0 12.0 13.0 8 12 0.00 -100.00 42.30 -71.10
- 481.2089 11 13 cbr 536 ------- 0 12.0 13.0 8 12 0.00 -100.00 42.30 -71.10
r 481.3397 11 13 cbr 536 ------- 0 12.0 13.0 8 12 0.00 -100.00 42.30 -71.10
+ 486.0000 14 10 cbr 536 ------- 1 14.0 15.0 2 13 0.00 10.00 -3.70 -2.03
- 486.0000 14 10 cbr 536 ------- 1 14.0 15.0 2 13 0.00 10.00 -3.70 -2.03
r 486.0085 14 10 cbr 536 ------- 1 14.0 15.0 2 13 0.00 10.00 -3.70 -2.03
+ 486.0085 10 15 cbr 536 ------- 1 14.0 15.0 2 13 -3.70 -2.03 0.00 -10.00
- 486.0085 10 15 cbr 536 ------- 1 14.0 15.0 2 13 -3.70 -2.03 0.00 -10.00
r 486.0158 10 15 cbr 536 ------- 1 14.0 15.0 2 13 -3.70 -2.03 0.00 -10.00
+ 541.0900 12 11 cbr 536 ------- 0 12.0 13.0 9 14 37.90 -122.30 0.00 -100.00
- 541.0900 12 11 cbr 536 ------- 0 12.0 13.0 9 14 37.90 -122.30 0.00 -100.00
r 541.2189 12 11 cbr 536 ------- 0 12.0 13.0 9 14 37.90 -122.30 0.00 -100.00
+ 541.2189 11 13 cbr 536 ------- 0 12.0 13.0 9 14 0.00 -100.00 42.30 -71.10
- 541.2189 11 13 cbr 536 ------- 0 12.0 13.0 9 14 0.00 -100.00 42.30 -71.10
r 541.3497 11 13 cbr 536 ------- 0 12.0 13.0 9 14 0.00 -100.00 42.30 -71.10
+ 576.5000 14 10 cbr 536 ------- 1 14.0 15.0 3 15 0.00 10.00 1.71 -2.41
- 576.5000 14 10 cbr 536 ------- 1 14.0 15.0 3 15 0.00 10.00 1.71 -2.41
r 576.5085 14 10 cbr 536 ------- 1 14.0 15.0 3 15 0.00 10.00 1.71 -2.41
+ 576.5085 10 15 cbr 536 ------- 1 14.0 15.0 3 15 1.71 -2.41 0.00 -10.00
- 576.5085 10 15 cbr 536 ------- 1 14.0 15.0 3 15 1.71 -2.41 0.00 -10.00
r 576.5155 10 15 cbr 536 ------- 1 14.0 15.0 3 15 1.71 -2.41 0.00 -10.00
+ 601.1000 12 11 cbr 536 ------- 0 12.0 13.0 10 16 37.90 -122.30 0.00 -100.00
- 601.1000 12 11 cbr 536 ------- 0 12.0 13.0 10 16 37.90 -122.30 0.00 -100.00
r 601.2289 12 11 cbr 536 ------- 0 12.0 13.0 10 16 37.90 -122.30 0.00 -100.00
+ 601.2289 11 13 cbr 536 ------- 0 12.0 13.0 10 16 0.00 -100.00 42.30 -71.10
- 601.2289 11 13 cbr 536 ------- 0 12.0 13.0 10 16 0.00 -100.00 42.30 -71.10
r 601.3597 11 13 cbr 536 ------- 0 12.0 13.0 10 16 0.00 -100.00 42.30 -71.10
+ 610 19 13 cbr 536 ------- 0 19.0 16.0 2 17
- 610 19 13 cbr 536 ------- 0 19.0 16.0 2 17
r 610.002858 19 13 cbr 536 ------- 0 19.0 16.0 2 17
+ 610.0029 13 11 cbr 536 ------- 0 19.0 16.0 2 17 42.30 -71.10 0.00 -100.00
- 610.0029 13 11 cbr 536 ------- 0 19.0 16.0 2 17 42.30 -71.10 0.00 -100.00
r 610.1337 13 11 cbr 536 ------- 0 19.0 16.0 2 17 42.30 -71.10 0.00 -100.00
+ 610.1337 11 12 cbr 536 ------- 0 19.0 16.0 2 17 0.00 -100.00 37.90 -122.30
- 610.1337 11 12 cbr 536 ------- 0 19.0 16.0 2 17 0.00 -100.00 37.90 -122.30
r 610.2626 11 12 cbr 536 ------- 0 19.0 16.0 2 17 0.00 -100.00 37.90 -122.30
+ 610.262599 12 17 cbr 536 ------- 0 19.0 16.0 2 17
- 610.262599 12 17 cbr 536 ------- 0 19.0 16.0 2 17
r 610.265456 12 17 cbr 536 ------- 0 19.0 16.0 2 17
+ 610.265456 17 16 cbr 536 ------- 0 19.0 16.0 2 17
- 610.265456 17 16 cbr 536 ------- 0 19.0 16.0 2 17
r 610.268314 17 16 cbr 536 ------- 0 19.0 16.0 2 17
+ 661.1100 12 11 cbr 536 ------- 0 12.0 13.0 11 18 37.90 -122.30 0.00 -100.00
- 661.1100 12 11 cbr 536 ------- 0 12.0 13.0 11 18 37.90 -122.30 0.00 -100.00
r 661.2389 12 11 cbr 536 ------- 0 12.0 13.0 11 18 37.90 -122.30 0.00 -100.00
+ 661.2389 11 13 cbr 536 ------- 0 12.0 13.0 11 18 0.00 -100.00 42.30 -71.10
- 661.2389 11 13 cbr 536 ------- 0 12.0 13.0 11 18 0.00 -100.00 42.30 -71.10
r 661.3697 11 13 cbr 536 ------- 0 12.0 13.0 11 18 0.00 -100.00 42.30 -71.10
+ 667.0000 14 10 cbr 536 ------- 1 14.0 15.0 4 19 0.00 10.00 7.11 -2.79
- 667.0000 14 10 cbr 536 ------- 1 14.0 15.0 4 19 0.00 10.00 7.11 -2.79
r 667.0092 14 10 cbr 536 ------- 1 14.0 15.0 4 19 0.00 10.00 7.11 -2.79
+ 667.0092 10 15 cbr 536 ------- 1 14.0 15.0 4 19 7.11 -2.79 0.00 -10.00
- 667.0092 10 15 cbr 536 ------- 1 14.0 15.0 4 19 7.11 -2.79 0.00 -10.00
r 667.0169 10 15 cbr 536 ------- 1 14.0 15.0 4 19 7.11 -2.79 0.00 -10.00
+ 721.1200 12 11 cbr 536 ------- 0 12.0 13.0 12 20 37.90 -122.30 0.00 -100.00
- 721.1200 12 11 cbr 536 ------- 0 12.0 13.0 12 20 37.90 -122.30 0.00 -100.00
r 721.2489 12 11 cbr 536 ------- 0 12.0 13.0 12 20 37.90 -122.30 0.00 -100.00
+ 721.2489 11 13 cbr 536 ------- 0 12.0 13.0 12 20 0.00 -100.00 42.30 -71.10
- 721.2489 11 13 cbr 536 ------- 0 12.0 13.0 12 20 0.00 -100.00 42.30 -71.10
r 721.3797 11 13 cbr 536 ------- 0 12.0 13.0 12 20 0.00 -100.00 42.30 -71.10
+ 757.5000 14 10 cbr 536 ------- 1 14.0 15.0 5 21 0.00 10.00 12.52 -3.16
- 757.5000 14 10 cbr 536 ------- 1 14.0 15.0 5 21 0.00 10.00 12.52 -3.16
r 757.5105 14 10 cbr 536 ------- 1 14.0 15.0 5 21 0.00 10.00 12.52 -3.16
+ 757.5105 10 15 cbr 536 ------- 1 14.0 15.0 5 21 12.52 -3.16 0.00 -10.00
- 757.5105 10 15 cbr 536 ------- 1 14.0 15.0 5 21 12.52 -3.16 0.00 -10.00
r 757.5196 10 15 cbr 536 ------- 1 14.0 15.0 5 21 12.52 -3.16 0.00 -10.00
+ 781.1300 12 11 cbr 536 ------- 0 12.0 13.0 13 22 37.90 -122.30 0.00 -100.00
- 781.1300 12 11 cbr 536 ------- 0 12.0 13.0 13 22 37.90 -122.30 0.00 -100.00
r 781.2589 12 11 cbr 536 ------- 0 12.0 13.0 13 22 37.90 -122.30 0.00 -100.00
+ 781.2589 11 13 cbr 536 ------- 0 12.0 13.0 13 22 0.00 -100.00 42.30 -71.10
- 781.2589 11 13 cbr 536 ------- 0 12.0 13.0 13 22 0.00 -100.00 42.30 -71.10
r 781.3897 11 13 cbr 536 ------- 0 12.0 13.0 13 22 0.00 -100.00 42.30 -71.10
+ 841.1400 12 11 cbr 536 ------- 0 12.0 13.0 14 23 37.90 -122.30 0.00 -100.00
- 841.1400 12 11 cbr 536 ------- 0 12.0 13.0 14 23 37.90 -122.30 0.00 -100.00
r 841.2689 12 11 cbr 536 ------- 0 12.0 13.0 14 23 37.90 -122.30 0.00 -100.00
+ 841.2689 11 13 cbr 536 ------- 0 12.0 13.0 14 23 0.00 -100.00 42.30 -71.10
- 841.2689 11 13 cbr 536 ------- 0 12.0 13.0 14 23 0.00 -100.00 42.30 -71.10
r 841.3997 11 13 cbr 536 ------- 0 12.0 13.0 14 23 0.00 -100.00 42.30 -71.10
+ 848.0000 14 -1 cbr 536 ------- 1 14.0 15.0 6 24 0.00 10.00 -999.00 -999.00
- 848.0000 14 -1 cbr 536 ------- 1 14.0 15.0 6 24 0.00 10.00 -999.00 -999.00
d 848.0000 14 -1 cbr 536 ------- 1 14.0 15.0 6 24 0.00 10.00 -999.00 -999.00
+ 901.1500 12 11 cbr 536 ------- 0 12.0 13.0 15 25 37.90 -122.30 0.00 -100.00
- 901.1500 12 11 cbr 536 ------- 0 12.0 13.0 15 25 37.90 -122.30 0.00 -100.00
r 901.2789 12 11 cbr 536 ------- 0 12.0 13.0 15 25 37.90 -122.30 0.00 -100.00
+ 901.2789 11 13 cbr 536 ------- 0 12.0 13.0 15 25 0.00 -100.00 42.30 -71.10
- 901.2789 11 13 cbr 536 ------- 0 12.0 13.0 15 25 0.00 -100.00 42.30 -71.10
r 901.4097 11 13 cbr 536 ------- 0 12.0 13.0 15 25 0.00 -100.00 42.30 -71.10
+ 910 19 13 cbr 536 ------- 0 19.0 16.0 3 26
- 910 19 13 cbr 536 ------- 0 19.0 16.0 3 26
r 910.002858 19 13 cbr 536 ------- 0 19.0 16.0 3 26
+ 910.0029 13 11 cbr 536 ------- 0 19.0 16.0 3 26 42.30 -71.10 0.00 -100.00
- 910.0029 13 11 cbr 536 ------- 0 19.0 16.0 3 26 42.30 -71.10 0.00 -100.00
r 910.1337 13 11 cbr 536 ------- 0 19.0 16.0 3 26 42.30 -71.10 0.00 -100.00
+ 910.1337 11 12 cbr 536 ------- 0 19.0 16.0 3 26 0.00 -100.00 37.90 -122.30
- 910.1337 11 12 cbr 536 ------- 0 19.0 16.0 3 26 0.00 -100.00 37.90 -122.30
r 910.2626 11 12 cbr 536 ------- 0 19.0 16.0 3 26 0.00 -100.00 37.90 -122.30
+ 910.262599 12 17 cbr 536 ------- 0 19.0 16.0 3 26
- 910.262599 12 17 cbr 536 ------- 0 19.0 16.0 3 26
r 910.265456 12 17 cbr 536 ------- 0 19.0 16.0 3 26
+ 910.265456 17 16 cbr 536 ------- 0 19.0 16.0 3 26
- 910.265456 17 16 cbr 536 ------- 0 19.0 16.0 3 26
r 910.268314 17 16 cbr 536 ------- 0 19.0 16.0 3 26
+ 938.5000 14 9 cbr 536 ------- 1 14.0 15.0 7 27 0.00 10.00 -9.39 -3.92
- 938.5000 14 9 cbr 536 ------- 1 14.0 15.0 7 27 0.00 10.00 -9.39 -3.92
r 938.5100 14 9 cbr 536 ------- 1 14.0 15.0 7 27 0.00 10.00 -9.39 -3.92
+ 938.5100 9 15 cbr 536 ------- 1 14.0 15.0 7 27 -9.39 -3.92 0.00 -10.00
- 938.5100 9 15 cbr 536 ------- 1 14.0 15.0 7 27 -9.39 -3.92 0.00 -10.00
r 938.5180 9 15 cbr 536 ------- 1 14.0 15.0 7 27 -9.39 -3.92 0.00 -10.00
+ 961.1600 12 11 cbr 536 ------- 0 12.0 13.0 16 28 37.90 -122.30 0.00 -100.00
- 961.1600 12 11 cbr 536 ------- 0 12.0 13.0 16 28 37.90 -122.30 0.00 -100.00
r 961.2889 12 11 cbr 536 ------- 0 12.0 13.0 16 28 37.90 -122.30 0.00 -100.00
+ 961.2889 11 13 cbr 536 ------- 0 12.0 13.0 16 28 0.00 -100.00 42.30 -71.10
- 961.2889 11 13 cbr 536 ------- 0 12.0 13.0 16 28 0.00 -100.00 42.30 -71.10
r 961.4197 11 13 cbr 536 ------- 0 12.0 13.0 16 28 0.00 -100.00 42.30 -71.10
+ 1021.1700 12 11 cbr 536 ------- 0 12.0 13.0 17 29 37.90 -122.30 0.00 -100.00
- 1021.1700 12 11 cbr 536 ------- 0 12.0 13.0 17 29 37.90 -122.30 0.00 -100.00
r 1021.2989 12 11 cbr 536 ------- 0 12.0 13.0 17 29 37.90 -122.30 0.00 -100.00
+ 1021.2989 11 13 cbr 536 ------- 0 12.0 13.0 17 29 0.00 -100.00 42.30 -71.10
- 1021.2989 11 13 cbr 536 ------- 0 12.0 13.0 17 29 0.00 -100.00 42.30 -71.10
r 1021.4297 11 13 cbr 536 ------- 0 12.0 13.0 17 29 0.00 -100.00 42.30 -71.10
+ 1029.0000 14 9 cbr 536 ------- 1 14.0 15.0 8 30 0.00 10.00 -3.99 -4.30
- 1029.0000 14 9 cbr 536 ------- 1 14.0 15.0 8 30 0.00 10.00 -3.99 -4.30
r 1029.0093 14 9 cbr 536 ------- 1 14.0 15.0 8 30 0.00 10.00 -3.99 -4.30
+ 1029.0093 9 15 cbr 536 ------- 1 14.0 15.0 8 30 -3.99 -4.30 0.00 -10.00
- 1029.0093 9 15 cbr 536 ------- 1 14.0 15.0 8 30 -3.99 -4.30 0.00 -10.00
r 1029.0160 9 15 cbr 536 ------- 1 14.0 15.0 8 30 -3.99 -4.30 0.00 -10.00
+ 1081.1800 12 11 cbr 536 ------- 0 12.0 13.0 18 31 37.90 -122.30 0.00 -100.00
- 1081.1800 12 11 cbr 536 ------- 0 12.0 13.0 18 31 37.90 -122.30 0.00 -100.00
r 1081.3089 12 11 cbr 536 ------- 0 12.0 13.0 18 31 37.90 -122.30 0.00 -100.00
+ 1081.3089 11 13 cbr 536 ------- 0 12.0 13.0 18 31 0.00 -100.00 42.30 -71.10
- 1081.3089 11 13 cbr 536 ------- 0 12.0 13.0 18 31 0.00 -100.00 42.30 -71.10
r 1081.4397 11 13 cbr 536 ------- 0 12.0 13.0 18 31 0.00 -100.00 42.30 -71.10
+ 1119.5000 14 9 cbr 536 ------- 1 14.0 15.0 9 32 0.00 10.00 1.42 -4.68
- 1119.5000 14 9 cbr 536 ------- 1 14.0 15.0 9 32 0.00 10.00 1.42 -4.68
r 1119.5093 14 9 cbr 536 ------- 1 14.0 15.0 9 32 0.00 10.00 1.42 -4.68
+ 1119.5093 9 15 cbr 536 ------- 1 14.0 15.0 9 32 1.42 -4.68 0.00 -10.00
- 1119.5093 9 15 cbr 536 ------- 1 14.0 15.0 9 32 1.42 -4.68 0.00 -10.00
r 1119.5156 9 15 cbr 536 ------- 1 14.0 15.0 9 32 1.42 -4.68 0.00 -10.00
+ 1141.1900 12 11 cbr 536 ------- 0 12.0 13.0 19 33 37.90 -122.30 0.00 -100.00
- 1141.1900 12 11 cbr 536 ------- 0 12.0 13.0 19 33 37.90 -122.30 0.00 -100.00
r 1141.3189 12 11 cbr 536 ------- 0 12.0 13.0 19 33 37.90 -122.30 0.00 -100.00
+ 1141.3189 11 13 cbr 536 ------- 0 12.0 13.0 19 33 0.00 -100.00 42.30 -71.10
- 1141.3189 11 13 cbr 536 ------- 0 12.0 13.0 19 33 0.00 -100.00 42.30 -71.10
r 1141.4497 11 13 cbr 536 ------- 0 12.0 13.0 19 33 0.00 -100.00 42.30 -71.10
+ 1201.2000 12 11 cbr 536 ------- 0 12.0 13.0 20 34 37.90 -122.30 0.00 -100.00
- 1201.2000 12 11 cbr 536 ------- 0 12.0 13.0 20 34 37.90 -122.30 0.00 -100.00
r 1201.3289 12 11 cbr 536 ------- 0 12.0 13.0 20 34 37.90 -122.30 0.00 -100.00
+ 1201.3289 11 13 cbr 536 ------- 0 12.0 13.0 20 34 0.00 -100.00 42.30 -71.10
- 1201.3289 11 13 cbr 536 ------- 0 12.0 13.0 20 34 0.00 -100.00 42.30 -71.10
r 1201.4597 11 13 cbr 536 ------- 0 12.0 13.0 20 34 0.00 -100.00 42.30 -71.10
+ 1210 19 13 cbr 536 ------- 0 19.0 16.0 4 35
- 1210 19 13 cbr 536 ------- 0 19.0 16.0 4 35
+ 1210.0000 14 9 cbr 536 ------- 1 14.0 15.0 10 36 0.00 10.00 6.83 -5.06
- 1210.0000 14 9 cbr 536 ------- 1 14.0 15.0 10 36 0.00 10.00 6.83 -5.06
r 1210.002858 19 13 cbr 536 ------- 0 19.0 16.0 4 35
+ 1210.0029 13 11 cbr 536 ------- 0 19.0 16.0 4 35 42.30 -71.10 0.00 -100.00
- 1210.0029 13 11 cbr 536 ------- 0 19.0 16.0 4 35 42.30 -71.10 0.00 -100.00
r 1210.0099 14 9 cbr 536 ------- 1 14.0 15.0 10 36 0.00 10.00 6.83 -5.06
+ 1210.0099 9 15 cbr 536 ------- 1 14.0 15.0 10 36 6.83 -5.06 0.00 -10.00
- 1210.0099 9 15 cbr 536 ------- 1 14.0 15.0 10 36 6.83 -5.06 0.00 -10.00
r 1210.0171 9 15 cbr 536 ------- 1 14.0 15.0 10 36 6.83 -5.06 0.00 -10.00
r 1210.1337 13 11 cbr 536 ------- 0 19.0 16.0 4 35 42.30 -71.10 0.00 -100.00
+ 1210.1337 11 12 cbr 536 ------- 0 19.0 16.0 4 35 0.00 -100.00 37.90 -122.30
- 1210.1337 11 12 cbr 536 ------- 0 19.0 16.0 4 35 0.00 -100.00 37.90 -122.30
r 1210.2626 11 12 cbr 536 ------- 0 19.0 16.0 4 35 0.00 -100.00 37.90 -122.30
+ 1210.262599 12 17 cbr 536 ------- 0 19.0 16.0 4 35
- 1210.262599 12 17 cbr 536 ------- 0 19.0 16.0 4 35
r 1210.265456 12 17 cbr 536 ------- 0 19.0 16.0 4 35
+ 1210.265456 17 16 cbr 536 ------- 0 19.0 16.0 4 35
- 1210.265456 17 16 cbr 536 ------- 0 19.0 16.0 4 35
r 1210.268314 17 16 cbr 536 ------- 0 19.0 16.0 4 35
+ 1261.2100 12 11 cbr 536 ------- 0 12.0 13.0 21 37 37.90 -122.30 0.00 -100.00
- 1261.2100 12 11 cbr 536 ------- 0 12.0 13.0 21 37 37.90 -122.30 0.00 -100.00
r 1261.3389 12 11 cbr 536 ------- 0 12.0 13.0 21 37 37.90 -122.30 0.00 -100.00
+ 1261.3389 11 13 cbr 536 ------- 0 12.0 13.0 21 37 0.00 -100.00 42.30 -71.10
- 1261.3389 11 13 cbr 536 ------- 0 12.0 13.0 21 37 0.00 -100.00 42.30 -71.10
r 1261.4697 11 13 cbr 536 ------- 0 12.0 13.0 21 37 0.00 -100.00 42.30 -71.10
+ 1300.5000 14 9 cbr 536 ------- 1 14.0 15.0 11 38 0.00 10.00 12.23 -5.43
- 1300.5000 14 9 cbr 536 ------- 1 14.0 15.0 11 38 0.00 10.00 12.23 -5.43
r 1300.5110 14 9 cbr 536 ------- 1 14.0 15.0 11 38 0.00 10.00 12.23 -5.43
+ 1300.5110 9 15 cbr 536 ------- 1 14.0 15.0 11 38 12.23 -5.43 0.00 -10.00
- 1300.5110 9 15 cbr 536 ------- 1 14.0 15.0 11 38 12.23 -5.43 0.00 -10.00
r 1300.5197 9 15 cbr 536 ------- 1 14.0 15.0 11 38 12.23 -5.43 0.00 -10.00
+ 1321.2200 12 11 cbr 536 ------- 0 12.0 13.0 22 39 37.90 -122.30 0.00 -100.00
- 1321.2200 12 11 cbr 536 ------- 0 12.0 13.0 22 39 37.90 -122.30 0.00 -100.00
r 1321.3489 12 11 cbr 536 ------- 0 12.0 13.0 22 39 37.90 -122.30 0.00 -100.00
+ 1321.3489 11 13 cbr 536 ------- 0 12.0 13.0 22 39 0.00 -100.00 42.30 -71.10
- 1321.3489 11 13 cbr 536 ------- 0 12.0 13.0 22 39 0.00 -100.00 42.30 -71.10
r 1321.4797 11 13 cbr 536 ------- 0 12.0 13.0 22 39 0.00 -100.00 42.30 -71.10
+ 1381.2300 12 11 cbr 536 ------- 0 12.0 13.0 23 40 37.90 -122.30 0.00 -100.00
- 1381.2300 12 11 cbr 536 ------- 0 12.0 13.0 23 40 37.90 -122.30 0.00 -100.00
r 1381.3589 12 11 cbr 536 ------- 0 12.0 13.0 23 40 37.90 -122.30 0.00 -100.00
+ 1381.3589 11 13 cbr 536 ------- 0 12.0 13.0 23 40 0.00 -100.00 42.30 -71.10
- 1381.3589 11 13 cbr 536 ------- 0 12.0 13.0 23 40 0.00 -100.00 42.30 -71.10
r 1381.4897 11 13 cbr 536 ------- 0 12.0 13.0 23 40 0.00 -100.00 42.30 -71.10
+ 1391.0000 14 -1 cbr 536 ------- 1 14.0 15.0 12 41 0.00 10.00 -999.00 -999.00
- 1391.0000 14 -1 cbr 536 ------- 1 14.0 15.0 12 41 0.00 10.00 -999.00 -999.00
d 1391.0000 14 -1 cbr 536 ------- 1 14.0 15.0 12 41 0.00 10.00 -999.00 -999.00
+ 1441.2400 12 11 cbr 536 ------- 0 12.0 13.0 24 42 37.90 -122.30 0.00 -100.00
- 1441.2400 12 11 cbr 536 ------- 0 12.0 13.0 24 42 37.90 -122.30 0.00 -100.00
r 1441.3689 12 11 cbr 536 ------- 0 12.0 13.0 24 42 37.90 -122.30 0.00 -100.00
+ 1441.3689 11 13 cbr 536 ------- 0 12.0 13.0 24 42 0.00 -100.00 42.30 -71.10
- 1441.3689 11 13 cbr 536 ------- 0 12.0 13.0 24 42 0.00 -100.00 42.30 -71.10
r 1441.4997 11 13 cbr 536 ------- 0 12.0 13.0 24 42 0.00 -100.00 42.30 -71.10
+ 1481.5000 14 8 cbr 536 ------- 1 14.0 15.0 13 43 0.00 10.00 -9.69 -6.19
- 1481.5000 14 8 cbr 536 ------- 1 14.0 15.0 13 43 0.00 10.00 -9.69 -6.19
r 1481.5108 14 8 cbr 536 ------- 1 14.0 15.0 13 43 0.00 10.00 -9.69 -6.19
+ 1481.5108 8 15 cbr 536 ------- 1 14.0 15.0 13 43 -9.69 -6.19 0.00 -10.00
- 1481.5108 8 15 cbr 536 ------- 1 14.0 15.0 13 43 -9.69 -6.19 0.00 -10.00
r 1481.5185 8 15 cbr 536 ------- 1 14.0 15.0 13 43 -9.69 -6.19 0.00 -10.00
+ 1501.2500 12 11 cbr 536 ------- 0 12.0 13.0 25 44 37.90 -122.30 0.00 -100.00
- 1501.2500 12 11 cbr 536 ------- 0 12.0 13.0 25 44 37.90 -122.30 0.00 -100.00
r 1501.3789 12 11 cbr 536 ------- 0 12.0 13.0 25 44 37.90 -122.30 0.00 -100.00
+ 1501.3789 11 13 cbr 536 ------- 0 12.0 13.0 25 44 0.00 -100.00 42.30 -71.10
- 1501.3789 11 13 cbr 536 ------- 0 12.0 13.0 25 44 0.00 -100.00 42.30 -71.10
r 1501.5097 11 13 cbr 536 ------- 0 12.0 13.0 25 44 0.00 -100.00 42.30 -71.10
+ 1510 19 13 cbr 536 ------- 0 19.0 16.0 5 45
- 1510 19 13 cbr 536 ------- 0 19.0 16.0 5 45
r 1510.002858 19 13 cbr 536 ------- 0 19.0 16.0 5 45
+ 1510.0029 13 11 cbr 536 ------- 0 19.0 16.0 5 45 42.30 -71.10 0.00 -100.00
- 1510.0029 13 11 cbr 536 ------- 0 19.0 16.0 5 45 42.30 -71.10 0.00 -100.00
r 1510.1337 13 11 cbr 536 ------- 0 19.0 16.0 5 45 42.30 -71.10 0.00 -100.00
+ 1510.1337 11 12 cbr 536 ------- 0 19.0 16.0 5 45 0.00 -100.00 37.90 -122.30
- 1510.1337 11 12 cbr 536 ------- 0 19.0 16.0 5 45 0.00 -100.00 37.90 -122.30
r 1510.2626 11 12 cbr 536 ------- 0 19.0 16.0 5 45 0.00 -100.00 37.90 -122.30
+ 1510.262599 12 17 cbr 536 ------- 0 19.0 16.0 5 45
- 1510.262599 12 17 cbr 536 ------- 0 19.0 16.0 5 45
r 1510.265456 12 17 cbr 536 ------- 0 19.0 16.0 5 45
+ 1510.265456 17 16 cbr 536 ------- 0 19.0 16.0 5 45
- 1510.265456 17 16 cbr 536 ------- 0 19.0 16.0 5 45
r 1510.268314 17 16 cbr 536 ------- 0 19.0 16.0 5 45
+ 1561.2600 12 11 cbr 536 ------- 0 12.0 13.0 26 46 37.90 -122.30 0.00 -100.00
- 1561.2600 12 11 cbr 536 ------- 0 12.0 13.0 26 46 37.90 -122.30 0.00 -100.00
r 1561.3889 12 11 cbr 536 ------- 0 12.0 13.0 26 46 37.90 -122.30 0.00 -100.00
+ 1561.3889 11 13 cbr 536 ------- 0 12.0 13.0 26 46 0.00 -100.00 42.30 -71.10
- 1561.3889 11 13 cbr 536 ------- 0 12.0 13.0 26 46 0.00 -100.00 42.30 -71.10
r 1561.5197 11 13 cbr 536 ------- 0 12.0 13.0 26 46 0.00 -100.00 42.30 -71.10
+ 1572.0000 14 8 cbr 536 ------- 1 14.0 15.0 14 47 0.00 10.00 -4.28 -6.57
- 1572.0000 14 8 cbr 536 ------- 1 14.0 15.0 14 47 0.00 10.00 -4.28 -6.57
r 1572.0101 14 8 cbr 536 ------- 1 14.0 15.0 14 47 0.00 10.00 -4.28 -6.57
+ 1572.0101 8 15 cbr 536 ------- 1 14.0 15.0 14 47 -4.28 -6.57 0.00 -10.00
- 1572.0101 8 15 cbr 536 ------- 1 14.0 15.0 14 47 -4.28 -6.57 0.00 -10.00
r 1572.0165 8 15 cbr 536 ------- 1 14.0 15.0 14 47 -4.28 -6.57 0.00 -10.00
+ 1621.2700 12 11 cbr 536 ------- 0 12.0 13.0 27 48 37.90 -122.30 0.00 -100.00
- 1621.2700 12 11 cbr 536 ------- 0 12.0 13.0 27 48 37.90 -122.30 0.00 -100.00
r 1621.3989 12 11 cbr 536 ------- 0 12.0 13.0 27 48 37.90 -122.30 0.00 -100.00
+ 1621.3989 11 13 cbr 536 ------- 0 12.0 13.0 27 48 0.00 -100.00 42.30 -71.10
- 1621.3989 11 13 cbr 536 ------- 0 12.0 13.0 27 48 0.00 -100.00 42.30 -71.10
r 1621.5297 11 13 cbr 536 ------- 0 12.0 13.0 27 48 0.00 -100.00 42.30 -71.10
+ 1662.5000 14 8 cbr 536 ------- 1 14.0 15.0 15 49 0.00 10.00 1.12 -6.95
- 1662.5000 14 8 cbr 536 ------- 1 14.0 15.0 15 49 0.00 10.00 1.12 -6.95
r 1662.5101 14 8 cbr 536 ------- 1 14.0 15.0 15 49 0.00 10.00 1.12 -6.95
+ 1662.5101 8 15 cbr 536 ------- 1 14.0 15.0 15 49 1.12 -6.95 0.00 -10.00
- 1662.5101 8 15 cbr 536 ------- 1 14.0 15.0 15 49 1.12 -6.95 0.00 -10.00
r 1662.5159 8 15 cbr 536 ------- 1 14.0 15.0 15 49 1.12 -6.95 0.00 -10.00
+ 1681.2800 12 11 cbr 536 ------- 0 12.0 13.0 28 50 37.90 -122.30 0.00 -100.00
- 1681.2800 12 11 cbr 536 ------- 0 12.0 13.0 28 50 37.90 -122.30 0.00 -100.00
r 1681.4089 12 11 cbr 536 ------- 0 12.0 13.0 28 50 37.90 -122.30 0.00 -100.00
+ 1681.4089 11 13 cbr 536 ------- 0 12.0 13.0 28 50 0.00 -100.00 42.30 -71.10
- 1681.4089 11 13 cbr 536 ------- 0 12.0 13.0 28 50 0.00 -100.00 42.30 -71.10
r 1681.5397 11 13 cbr 536 ------- 0 12.0 13.0 28 50 0.00 -100.00 42.30 -71.10
+ 1741.2900 12 11 cbr 536 ------- 0 12.0 13.0 29 51 37.90 -122.30 0.00 -100.00
- 1741.2900 12 11 cbr 536 ------- 0 12.0 13.0 29 51 37.90 -122.30 0.00 -100.00
r 1741.4189 12 11 cbr 536 ------- 0 12.0 13.0 29 51 37.90 -122.30 0.00 -100.00
+ 1741.4189 11 13 cbr 536 ------- 0 12.0 13.0 29 51 0.00 -100.00 42.30 -71.10
- 1741.4189 11 13 cbr 536 ------- 0 12.0 13.0 29 51 0.00 -100.00 42.30 -71.10
r 1741.5497 11 13 cbr 536 ------- 0 12.0 13.0 29 51 0.00 -100.00 42.30 -71.10
+ 1753.0000 14 8 cbr 536 ------- 1 14.0 15.0 16 52 0.00 10.00 6.53 -7.32
- 1753.0000 14 8 cbr 536 ------- 1 14.0 15.0 16 52 0.00 10.00 6.53 -7.32
r 1753.0106 14 8 cbr 536 ------- 1 14.0 15.0 16 52 0.00 10.00 6.53 -7.32
+ 1753.0106 8 15 cbr 536 ------- 1 14.0 15.0 16 52 6.53 -7.32 0.00 -10.00
- 1753.0106 8 15 cbr 536 ------- 1 14.0 15.0 16 52 6.53 -7.32 0.00 -10.00
r 1753.0174 8 15 cbr 536 ------- 1 14.0 15.0 16 52 6.53 -7.32 0.00 -10.00
+ 1801.3000 12 11 cbr 536 ------- 0 12.0 13.0 30 53 37.90 -122.30 0.00 -100.00
- 1801.3000 12 11 cbr 536 ------- 0 12.0 13.0 30 53 37.90 -122.30 0.00 -100.00
r 1801.4289 12 11 cbr 536 ------- 0 12.0 13.0 30 53 37.90 -122.30 0.00 -100.00
+ 1801.4289 11 13 cbr 536 ------- 0 12.0 13.0 30 53 0.00 -100.00 42.30 -71.10
- 1801.4289 11 13 cbr 536 ------- 0 12.0 13.0 30 53 0.00 -100.00 42.30 -71.10
r 1801.5597 11 13 cbr 536 ------- 0 12.0 13.0 30 53 0.00 -100.00 42.30 -71.10
+ 1810 19 13 cbr 536 ------- 0 19.0 16.0 6 54
- 1810 19 13 cbr 536 ------- 0 19.0 16.0 6 54
r 1810.002858 19 13 cbr 536 ------- 0 19.0 16.0 6 54
+ 1810.0029 13 11 cbr 536 ------- 0 19.0 16.0 6 54 42.30 -71.10 0.00 -100.00
- 1810.0029 13 11 cbr 536 ------- 0 19.0 16.0 6 54 42.30 -71.10 0.00 -100.00
r 1810.1337 13 11 cbr 536 ------- 0 19.0 16.0 6 54 42.30 -71.10 0.00 -100.00
+ 1810.1337 11 12 cbr 536 ------- 0 19.0 16.0 6 54 0.00 -100.00 37.90 -122.30
- 1810.1337 11 12 cbr 536 ------- 0 19.0 16.0 6 54 0.00 -100.00 37.90 -122.30
r 1810.2626 11 12 cbr 536 ------- 0 19.0 16.0 6 54 0.00 -100.00 37.90 -122.30
+ 1810.262599 12 17 cbr 536 ------- 0 19.0 16.0 6 54
- 1810.262599 12 17 cbr 536 ------- 0 19.0 16.0 6 54
r 1810.265456 12 17 cbr 536 ------- 0 19.0 16.0 6 54
+ 1810.265456 17 16 cbr 536 ------- 0 19.0 16.0 6 54
- 1810.265456 17 16 cbr 536 ------- 0 19.0 16.0 6 54
r 1810.268314 17 16 cbr 536 ------- 0 19.0 16.0 6 54
+ 1843.5000 14 -1 cbr 536 ------- 1 14.0 15.0 17 55 0.00 10.00 -999.00 -999.00
- 1843.5000 14 -1 cbr 536 ------- 1 14.0 15.0 17 55 0.00 10.00 -999.00 -999.00
d 1843.5000 14 -1 cbr 536 ------- 1 14.0 15.0 17 55 0.00 10.00 -999.00 -999.00
+ 1861.3100 12 11 cbr 536 ------- 0 12.0 13.0 31 56 37.90 -122.30 0.00 -100.00
- 1861.3100 12 11 cbr 536 ------- 0 12.0 13.0 31 56 37.90 -122.30 0.00 -100.00
r 1861.4389 12 11 cbr 536 ------- 0 12.0 13.0 31 56 37.90 -122.30 0.00 -100.00
+ 1861.4389 11 13 cbr 536 ------- 0 12.0 13.0 31 56 0.00 -100.00 42.30 -71.10
- 1861.4389 11 13 cbr 536 ------- 0 12.0 13.0 31 56 0.00 -100.00 42.30 -71.10
r 1861.5697 11 13 cbr 536 ------- 0 12.0 13.0 31 56 0.00 -100.00 42.30 -71.10
+ 1921.3200 12 11 cbr 536 ------- 0 12.0 13.0 32 57 37.90 -122.30 0.00 -100.00
- 1921.3200 12 11 cbr 536 ------- 0 12.0 13.0 32 57 37.90 -122.30 0.00 -100.00
r 1921.4489 12 11 cbr 536 ------- 0 12.0 13.0 32 57 37.90 -122.30 0.00 -100.00
+ 1921.4489 11 13 cbr 536 ------- 0 12.0 13.0 32 57 0.00 -100.00 42.30 -71.10
- 1921.4489 11 13 cbr 536 ------- 0 12.0 13.0 32 57 0.00 -100.00 42.30 -71.10
r 1921.5797 11 13 cbr 536 ------- 0 12.0 13.0 32 57 0.00 -100.00 42.30 -71.10
+ 1934.0000 14 -1 cbr 536 ------- 1 14.0 15.0 18 58 0.00 10.00 -999.00 -999.00
- 1934.0000 14 -1 cbr 536 ------- 1 14.0 15.0 18 58 0.00 10.00 -999.00 -999.00
d 1934.0000 14 -1 cbr 536 ------- 1 14.0 15.0 18 58 0.00 10.00 -999.00 -999.00
+ 1981.3300 12 11 cbr 536 ------- 0 12.0 13.0 33 59 37.90 -122.30 0.00 -100.00
- 1981.3300 12 11 cbr 536 ------- 0 12.0 13.0 33 59 37.90 -122.30 0.00 -100.00
r 1981.4589 12 11 cbr 536 ------- 0 12.0 13.0 33 59 37.90 -122.30 0.00 -100.00
+ 1981.4589 11 13 cbr 536 ------- 0 12.0 13.0 33 59 0.00 -100.00 42.30 -71.10
- 1981.4589 11 13 cbr 536 ------- 0 12.0 13.0 33 59 0.00 -100.00 42.30 -71.10
r 1981.5897 11 13 cbr 536 ------- 0 12.0 13.0 33 59 0.00 -100.00 42.30 -71.10