v 0.3 eval {set sim_annotation {0.29999999999999999 3 join-group 1073741824}}
+ 0.35 0 2 encap 556 ------- 0 0.2 5.0 -1 1
- 0.35 0 2 encap 556 ------- 0 0.2 5.0 -1 1
+ 0.354288 0 2 encap 556 ------- 0 0.2 5.0 -1 3
- 0.354288 0 2 encap 556 ------- 0 0.2 5.0 -1 3
+ 0.358576 0 2 encap 556 ------- 0 0.2 5.0 -1 5
- 0.358576 0 2 encap 556 ------- 0 0.2 5.0 -1 5
+ 0.362864 0 2 encap 556 ------- 0 0.2 5.0 -1 7
- 0.362864 0 2 encap 556 ------- 0 0.2 5.0 -1 7
r 0.362965 0 2 encap 556 ------- 0 0.2 5.0 -1 1
+ 0.362965 2 5 encap 556 ------- 0 0.2 5.0 -1 1
- 0.362965 2 5 encap 556 ------- 0 0.2 5.0 -1 1
+ 0.367152 0 2 encap 556 ------- 0 0.2 5.0 -1 9
- 0.367152 0 2 encap 556 ------- 0 0.2 5.0 -1 9
r 0.367253 0 2 encap 556 ------- 0 0.2 5.0 -1 3
+ 0.367253 2 5 encap 556 ------- 0 0.2 5.0 -1 3
- 0.367253 2 5 encap 556 ------- 0 0.2 5.0 -1 3
+ 0.37144 0 2 encap 556 ------- 0 0.2 5.0 -1 11
- 0.37144 0 2 encap 556 ------- 0 0.2 5.0 -1 11
r 0.371541 0 2 encap 556 ------- 0 0.2 5.0 -1 5
+ 0.371541 2 5 encap 556 ------- 0 0.2 5.0 -1 5
- 0.371541 2 5 encap 556 ------- 0 0.2 5.0 -1 5
+ 0.375728 0 2 encap 556 ------- 0 0.2 5.0 -1 13
- 0.375728 0 2 encap 556 ------- 0 0.2 5.0 -1 13
r 0.375829 0 2 encap 556 ------- 0 0.2 5.0 -1 7
+ 0.375829 2 5 encap 556 ------- 0 0.2 5.0 -1 7
- 0.375829 2 5 encap 556 ------- 0 0.2 5.0 -1 7
r 0.375931 2 5 encap 556 ------- 0 0.2 5.0 -1 1
+ 0.375931 5 2 cbr 536 ------- 1 0.1 1073741824.0 0 0
- 0.375931 5 2 cbr 536 ------- 1 0.1 1073741824.0 0 0
+ 0.380016 0 2 encap 556 ------- 0 0.2 5.0 -1 15
- 0.380016 0 2 encap 556 ------- 0 0.2 5.0 -1 15
r 0.380117 0 2 encap 556 ------- 0 0.2 5.0 -1 9
+ 0.380117 2 5 encap 556 ------- 0 0.2 5.0 -1 9
- 0.380117 2 5 encap 556 ------- 0 0.2 5.0 -1 9
r 0.380219 2 5 encap 556 ------- 0 0.2 5.0 -1 3
+ 0.380219 5 2 cbr 536 ------- 1 0.1 1073741824.0 1 2
- 0.380219 5 2 cbr 536 ------- 1 0.1 1073741824.0 1 2
+ 0.384304 0 2 encap 556 ------- 0 0.2 5.0 -1 17
- 0.384304 0 2 encap 556 ------- 0 0.2 5.0 -1 17
r 0.384405 0 2 encap 556 ------- 0 0.2 5.0 -1 11
+ 0.384405 2 5 encap 556 ------- 0 0.2 5.0 -1 11
- 0.384405 2 5 encap 556 ------- 0 0.2 5.0 -1 11
r 0.384507 2 5 encap 556 ------- 0 0.2 5.0 -1 5
+ 0.384507 5 2 cbr 536 ------- 1 0.1 1073741824.0 2 4
- 0.384507 5 2 cbr 536 ------- 1 0.1 1073741824.0 2 4
+ 0.388592 0 2 encap 556 ------- 0 0.2 5.0 -1 19
- 0.388592 0 2 encap 556 ------- 0 0.2 5.0 -1 19
r 0.388693 0 2 encap 556 ------- 0 0.2 5.0 -1 13
+ 0.388693 2 5 encap 556 ------- 0 0.2 5.0 -1 13
- 0.388693 2 5 encap 556 ------- 0 0.2 5.0 -1 13
r 0.388789 5 2 cbr 536 ------- 1 0.1 1073741824.0 0 0
+ 0.388789 2 0 cbr 536 ------- 1 0.1 1073741824.0 0 0
- 0.388789 2 0 cbr 536 ------- 1 0.1 1073741824.0 0 0
r 0.388795 2 5 encap 556 ------- 0 0.2 5.0 -1 7
+ 0.388795 5 2 cbr 536 ------- 1 0.1 1073741824.0 3 6
- 0.388795 5 2 cbr 536 ------- 1 0.1 1073741824.0 3 6
+ 0.39288 0 2 encap 556 ------- 0 0.2 5.0 -1 21
- 0.39288 0 2 encap 556 ------- 0 0.2 5.0 -1 21
r 0.392981 0 2 encap 556 ------- 0 0.2 5.0 -1 15
+ 0.392981 2 5 encap 556 ------- 0 0.2 5.0 -1 15
- 0.392981 2 5 encap 556 ------- 0 0.2 5.0 -1 15
r 0.393077 5 2 cbr 536 ------- 1 0.1 1073741824.0 1 2
+ 0.393077 2 0 cbr 536 ------- 1 0.1 1073741824.0 1 2
- 0.393077 2 0 cbr 536 ------- 1 0.1 1073741824.0 1 2
r 0.393083 2 5 encap 556 ------- 0 0.2 5.0 -1 9
+ 0.393083 5 2 cbr 536 ------- 1 0.1 1073741824.0 4 8
- 0.393083 5 2 cbr 536 ------- 1 0.1 1073741824.0 4 8
+ 0.397168 0 2 encap 556 ------- 0 0.2 5.0 -1 23
- 0.397168 0 2 encap 556 ------- 0 0.2 5.0 -1 23
r 0.397269 0 2 encap 556 ------- 0 0.2 5.0 -1 17
+ 0.397269 2 5 encap 556 ------- 0 0.2 5.0 -1 17
- 0.397269 2 5 encap 556 ------- 0 0.2 5.0 -1 17
r 0.397365 5 2 cbr 536 ------- 1 0.1 1073741824.0 2 4
+ 0.397365 2 0 cbr 536 ------- 1 0.1 1073741824.0 2 4
- 0.397365 2 0 cbr 536 ------- 1 0.1 1073741824.0 2 4
r 0.397371 2 5 encap 556 ------- 0 0.2 5.0 -1 11
+ 0.397371 5 2 cbr 536 ------- 1 0.1 1073741824.0 5 10
- 0.397371 5 2 cbr 536 ------- 1 0.1 1073741824.0 5 10
v 0.4 eval {set sim_annotation {0.40000000000000002 4 join-group 1073741824}}
+ 0.401456 0 2 encap 556 ------- 0 0.2 5.0 -1 25
- 0.401456 0 2 encap 556 ------- 0 0.2 5.0 -1 25
r 0.401557 0 2 encap 556 ------- 0 0.2 5.0 -1 19
+ 0.401557 2 5 encap 556 ------- 0 0.2 5.0 -1 19
- 0.401557 2 5 encap 556 ------- 0 0.2 5.0 -1 19
r 0.401648 2 0 cbr 536 ------- 1 0.1 1073741824.0 0 0
+ 0.401648 0 1 cbr 536 ------- 1 0.1 1073741824.0 0 0
- 0.401648 0 1 cbr 536 ------- 1 0.1 1073741824.0 0 0
r 0.401653 5 2 cbr 536 ------- 1 0.1 1073741824.0 3 6
+ 0.401653 2 0 cbr 536 ------- 1 0.1 1073741824.0 3 6
- 0.401653 2 0 cbr 536 ------- 1 0.1 1073741824.0 3 6
+ 0.401653 2 4 cbr 536 ------- 1 0.1 1073741824.0 3 6
- 0.401653 2 4 cbr 536 ------- 1 0.1 1073741824.0 3 6
r 0.401659 2 5 encap 556 ------- 0 0.2 5.0 -1 13
+ 0.401659 5 2 cbr 536 ------- 1 0.1 1073741824.0 6 12
- 0.401659 5 2 cbr 536 ------- 1 0.1 1073741824.0 6 12
+ 0.405744 0 2 encap 556 ------- 0 0.2 5.0 -1 27
- 0.405744 0 2 encap 556 ------- 0 0.2 5.0 -1 27
r 0.405845 0 2 encap 556 ------- 0 0.2 5.0 -1 21
+ 0.405845 2 5 encap 556 ------- 0 0.2 5.0 -1 21
- 0.405845 2 5 encap 556 ------- 0 0.2 5.0 -1 21
r 0.405936 2 0 cbr 536 ------- 1 0.1 1073741824.0 1 2
+ 0.405936 0 1 cbr 536 ------- 1 0.1 1073741824.0 1 2
- 0.405936 0 1 cbr 536 ------- 1 0.1 1073741824.0 1 2
r 0.405941 5 2 cbr 536 ------- 1 0.1 1073741824.0 4 8
+ 0.405941 2 0 cbr 536 ------- 1 0.1 1073741824.0 4 8
- 0.405941 2 0 cbr 536 ------- 1 0.1 1073741824.0 4 8
+ 0.405941 2 4 cbr 536 ------- 1 0.1 1073741824.0 4 8
- 0.405941 2 4 cbr 536 ------- 1 0.1 1073741824.0 4 8
r 0.405947 2 5 encap 556 ------- 0 0.2 5.0 -1 15
+ 0.405947 5 2 cbr 536 ------- 1 0.1 1073741824.0 7 14
- 0.405947 5 2 cbr 536 ------- 1 0.1 1073741824.0 7 14
+ 0.410032 0 2 encap 556 ------- 0 0.2 5.0 -1 29
- 0.410032 0 2 encap 556 ------- 0 0.2 5.0 -1 29
r 0.410133 0 2 encap 556 ------- 0 0.2 5.0 -1 23
+ 0.410133 2 5 encap 556 ------- 0 0.2 5.0 -1 23
- 0.410133 2 5 encap 556 ------- 0 0.2 5.0 -1 23
r 0.410224 2 0 cbr 536 ------- 1 0.1 1073741824.0 2 4
+ 0.410224 0 1 cbr 536 ------- 1 0.1 1073741824.0 2 4
- 0.410224 0 1 cbr 536 ------- 1 0.1 1073741824.0 2 4
r 0.410229 5 2 cbr 536 ------- 1 0.1 1073741824.0 5 10
+ 0.410229 2 0 cbr 536 ------- 1 0.1 1073741824.0 5 10
- 0.410229 2 0 cbr 536 ------- 1 0.1 1073741824.0 5 10
+ 0.410229 2 4 cbr 536 ------- 1 0.1 1073741824.0 5 10
- 0.410229 2 4 cbr 536 ------- 1 0.1 1073741824.0 5 10
r 0.410235 2 5 encap 556 ------- 0 0.2 5.0 -1 17
+ 0.410235 5 2 cbr 536 ------- 1 0.1 1073741824.0 8 16
- 0.410235 5 2 cbr 536 ------- 1 0.1 1073741824.0 8 16
+ 0.41432 0 2 encap 556 ------- 0 0.2 5.0 -1 31
- 0.41432 0 2 encap 556 ------- 0 0.2 5.0 -1 31
r 0.414421 0 2 encap 556 ------- 0 0.2 5.0 -1 25
+ 0.414421 2 5 encap 556 ------- 0 0.2 5.0 -1 25
- 0.414421 2 5 encap 556 ------- 0 0.2 5.0 -1 25
r 0.414507 0 1 cbr 536 ------- 1 0.1 1073741824.0 0 0
+ 0.414507 1 3 cbr 536 ------- 1 0.1 1073741824.0 0 0
- 0.414507 1 3 cbr 536 ------- 1 0.1 1073741824.0 0 0
r 0.414512 2 0 cbr 536 ------- 1 0.1 1073741824.0 3 6
+ 0.414512 0 1 cbr 536 ------- 1 0.1 1073741824.0 3 6
- 0.414512 0 1 cbr 536 ------- 1 0.1 1073741824.0 3 6
r 0.414512 2 4 cbr 536 ------- 1 0.1 1073741824.0 3 6
r 0.414517 5 2 cbr 536 ------- 1 0.1 1073741824.0 6 12
+ 0.414517 2 0 cbr 536 ------- 1 0.1 1073741824.0 6 12
- 0.414517 2 0 cbr 536 ------- 1 0.1 1073741824.0 6 12
+ 0.414517 2 4 cbr 536 ------- 1 0.1 1073741824.0 6 12
- 0.414517 2 4 cbr 536 ------- 1 0.1 1073741824.0 6 12
r 0.414523 2 5 encap 556 ------- 0 0.2 5.0 -1 19
+ 0.414523 5 2 cbr 536 ------- 1 0.1 1073741824.0 9 18
- 0.414523 5 2 cbr 536 ------- 1 0.1 1073741824.0 9 18
+ 0.418608 0 2 encap 556 ------- 0 0.2 5.0 -1 33
- 0.418608 0 2 encap 556 ------- 0 0.2 5.0 -1 33
r 0.418709 0 2 encap 556 ------- 0 0.2 5.0 -1 27
+ 0.418709 2 5 encap 556 ------- 0 0.2 5.0 -1 27
- 0.418709 2 5 encap 556 ------- 0 0.2 5.0 -1 27
r 0.418795 0 1 cbr 536 ------- 1 0.1 1073741824.0 1 2
+ 0.418795 1 3 cbr 536 ------- 1 0.1 1073741824.0 1 2
- 0.418795 1 3 cbr 536 ------- 1 0.1 1073741824.0 1 2
r 0.4188 2 0 cbr 536 ------- 1 0.1 1073741824.0 4 8
+ 0.4188 0 1 cbr 536 ------- 1 0.1 1073741824.0 4 8
- 0.4188 0 1 cbr 536 ------- 1 0.1 1073741824.0 4 8
r 0.4188 2 4 cbr 536 ------- 1 0.1 1073741824.0 4 8
r 0.418805 5 2 cbr 536 ------- 1 0.1 1073741824.0 7 14
+ 0.418805 2 0 cbr 536 ------- 1 0.1 1073741824.0 7 14
- 0.418805 2 0 cbr 536 ------- 1 0.1 1073741824.0 7 14
+ 0.418805 2 4 cbr 536 ------- 1 0.1 1073741824.0 7 14
- 0.418805 2 4 cbr 536 ------- 1 0.1 1073741824.0 7 14
r 0.418811 2 5 encap 556 ------- 0 0.2 5.0 -1 21
+ 0.418811 5 2 cbr 536 ------- 1 0.1 1073741824.0 10 20
- 0.418811 5 2 cbr 536 ------- 1 0.1 1073741824.0 10 20
+ 0.422896 0 2 encap 556 ------- 0 0.2 5.0 -1 35
- 0.422896 0 2 encap 556 ------- 0 0.2 5.0 -1 35
r 0.422997 0 2 encap 556 ------- 0 0.2 5.0 -1 29
+ 0.422997 2 5 encap 556 ------- 0 0.2 5.0 -1 29
- 0.422997 2 5 encap 556 ------- 0 0.2 5.0 -1 29
r 0.423083 0 1 cbr 536 ------- 1 0.1 1073741824.0 2 4
+ 0.423083 1 3 cbr 536 ------- 1 0.1 1073741824.0 2 4
- 0.423083 1 3 cbr 536 ------- 1 0.1 1073741824.0 2 4
r 0.423088 2 0 cbr 536 ------- 1 0.1 1073741824.0 5 10
+ 0.423088 0 1 cbr 536 ------- 1 0.1 1073741824.0 5 10
- 0.423088 0 1 cbr 536 ------- 1 0.1 1073741824.0 5 10
r 0.423088 2 4 cbr 536 ------- 1 0.1 1073741824.0 5 10
r 0.423093 5 2 cbr 536 ------- 1 0.1 1073741824.0 8 16
+ 0.423093 2 0 cbr 536 ------- 1 0.1 1073741824.0 8 16
- 0.423093 2 0 cbr 536 ------- 1 0.1 1073741824.0 8 16
+ 0.423093 2 4 cbr 536 ------- 1 0.1 1073741824.0 8 16
- 0.423093 2 4 cbr 536 ------- 1 0.1 1073741824.0 8 16
r 0.423099 2 5 encap 556 ------- 0 0.2 5.0 -1 23
+ 0.423099 5 2 cbr 536 ------- 1 0.1 1073741824.0 11 22
- 0.423099 5 2 cbr 536 ------- 1 0.1 1073741824.0 11 22
+ 0.427184 0 2 encap 556 ------- 0 0.2 5.0 -1 37
- 0.427184 0 2 encap 556 ------- 0 0.2 5.0 -1 37
r 0.427285 0 2 encap 556 ------- 0 0.2 5.0 -1 31
+ 0.427285 2 5 encap 556 ------- 0 0.2 5.0 -1 31
- 0.427285 2 5 encap 556 ------- 0 0.2 5.0 -1 31
r 0.427365 1 3 cbr 536 ------- 1 0.1 1073741824.0 0 0
r 0.427371 0 1 cbr 536 ------- 1 0.1 1073741824.0 3 6
+ 0.427371 1 3 cbr 536 ------- 1 0.1 1073741824.0 3 6
- 0.427371 1 3 cbr 536 ------- 1 0.1 1073741824.0 3 6
r 0.427376 2 0 cbr 536 ------- 1 0.1 1073741824.0 6 12
+ 0.427376 0 1 cbr 536 ------- 1 0.1 1073741824.0 6 12
- 0.427376 0 1 cbr 536 ------- 1 0.1 1073741824.0 6 12
r 0.427376 2 4 cbr 536 ------- 1 0.1 1073741824.0 6 12
r 0.427381 5 2 cbr 536 ------- 1 0.1 1073741824.0 9 18
+ 0.427381 2 0 cbr 536 ------- 1 0.1 1073741824.0 9 18
- 0.427381 2 0 cbr 536 ------- 1 0.1 1073741824.0 9 18
+ 0.427381 2 4 cbr 536 ------- 1 0.1 1073741824.0 9 18
- 0.427381 2 4 cbr 536 ------- 1 0.1 1073741824.0 9 18
r 0.427387 2 5 encap 556 ------- 0 0.2 5.0 -1 25
+ 0.427387 5 2 cbr 536 ------- 1 0.1 1073741824.0 12 24
- 0.427387 5 2 cbr 536 ------- 1 0.1 1073741824.0 12 24
+ 0.431472 0 2 encap 556 ------- 0 0.2 5.0 -1 39
- 0.431472 0 2 encap 556 ------- 0 0.2 5.0 -1 39
r 0.431573 0 2 encap 556 ------- 0 0.2 5.0 -1 33
+ 0.431573 2 5 encap 556 ------- 0 0.2 5.0 -1 33
- 0.431573 2 5 encap 556 ------- 0 0.2 5.0 -1 33
r 0.431653 1 3 cbr 536 ------- 1 0.1 1073741824.0 1 2
r 0.431659 0 1 cbr 536 ------- 1 0.1 1073741824.0 4 8
+ 0.431659 1 3 cbr 536 ------- 1 0.1 1073741824.0 4 8
- 0.431659 1 3 cbr 536 ------- 1 0.1 1073741824.0 4 8
r 0.431664 2 0 cbr 536 ------- 1 0.1 1073741824.0 7 14
+ 0.431664 0 1 cbr 536 ------- 1 0.1 1073741824.0 7 14
- 0.431664 0 1 cbr 536 ------- 1 0.1 1073741824.0 7 14
r 0.431664 2 4 cbr 536 ------- 1 0.1 1073741824.0 7 14
r 0.431669 5 2 cbr 536 ------- 1 0.1 1073741824.0 10 20
+ 0.431669 2 0 cbr 536 ------- 1 0.1 1073741824.0 10 20
- 0.431669 2 0 cbr 536 ------- 1 0.1 1073741824.0 10 20
+ 0.431669 2 4 cbr 536 ------- 1 0.1 1073741824.0 10 20
- 0.431669 2 4 cbr 536 ------- 1 0.1 1073741824.0 10 20
r 0.431675 2 5 encap 556 ------- 0 0.2 5.0 -1 27
+ 0.431675 5 2 cbr 536 ------- 1 0.1 1073741824.0 13 26
- 0.431675 5 2 cbr 536 ------- 1 0.1 1073741824.0 13 26
+ 0.43576 0 2 encap 556 ------- 0 0.2 5.0 -1 41
- 0.43576 0 2 encap 556 ------- 0 0.2 5.0 -1 41
r 0.435861 0 2 encap 556 ------- 0 0.2 5.0 -1 35
+ 0.435861 2 5 encap 556 ------- 0 0.2 5.0 -1 35
- 0.435861 2 5 encap 556 ------- 0 0.2 5.0 -1 35
r 0.435941 1 3 cbr 536 ------- 1 0.1 1073741824.0 2 4
r 0.435947 0 1 cbr 536 ------- 1 0.1 1073741824.0 5 10
+ 0.435947 1 3 cbr 536 ------- 1 0.1 1073741824.0 5 10
- 0.435947 1 3 cbr 536 ------- 1 0.1 1073741824.0 5 10
r 0.435952 2 0 cbr 536 ------- 1 0.1 1073741824.0 8 16
+ 0.435952 0 1 cbr 536 ------- 1 0.1 1073741824.0 8 16
- 0.435952 0 1 cbr 536 ------- 1 0.1 1073741824.0 8 16
r 0.435952 2 4 cbr 536 ------- 1 0.1 1073741824.0 8 16
r 0.435957 5 2 cbr 536 ------- 1 0.1 1073741824.0 11 22
+ 0.435957 2 0 cbr 536 ------- 1 0.1 1073741824.0 11 22
- 0.435957 2 0 cbr 536 ------- 1 0.1 1073741824.0 11 22
+ 0.435957 2 4 cbr 536 ------- 1 0.1 1073741824.0 11 22
- 0.435957 2 4 cbr 536 ------- 1 0.1 1073741824.0 11 22
r 0.435963 2 5 encap 556 ------- 0 0.2 5.0 -1 29
+ 0.435963 5 2 cbr 536 ------- 1 0.1 1073741824.0 14 28
- 0.435963 5 2 cbr 536 ------- 1 0.1 1073741824.0 14 28
+ 0.440048 0 2 encap 556 ------- 0 0.2 5.0 -1 43
- 0.440048 0 2 encap 556 ------- 0 0.2 5.0 -1 43
r 0.440149 0 2 encap 556 ------- 0 0.2 5.0 -1 37
+ 0.440149 2 5 encap 556 ------- 0 0.2 5.0 -1 37
- 0.440149 2 5 encap 556 ------- 0 0.2 5.0 -1 37
r 0.440229 1 3 cbr 536 ------- 1 0.1 1073741824.0 3 6
r 0.440235 0 1 cbr 536 ------- 1 0.1 1073741824.0 6 12
+ 0.440235 1 3 cbr 536 ------- 1 0.1 1073741824.0 6 12
- 0.440235 1 3 cbr 536 ------- 1 0.1 1073741824.0 6 12
r 0.44024 2 0 cbr 536 ------- 1 0.1 1073741824.0 9 18
+ 0.44024 0 1 cbr 536 ------- 1 0.1 1073741824.0 9 18
- 0.44024 0 1 cbr 536 ------- 1 0.1 1073741824.0 9 18
r 0.44024 2 4 cbr 536 ------- 1 0.1 1073741824.0 9 18
r 0.440245 5 2 cbr 536 ------- 1 0.1 1073741824.0 12 24
+ 0.440245 2 0 cbr 536 ------- 1 0.1 1073741824.0 12 24
- 0.440245 2 0 cbr 536 ------- 1 0.1 1073741824.0 12 24
+ 0.440245 2 4 cbr 536 ------- 1 0.1 1073741824.0 12 24
- 0.440245 2 4 cbr 536 ------- 1 0.1 1073741824.0 12 24
r 0.440251 2 5 encap 556 ------- 0 0.2 5.0 -1 31
+ 0.440251 5 2 cbr 536 ------- 1 0.1 1073741824.0 15 30
- 0.440251 5 2 cbr 536 ------- 1 0.1 1073741824.0 15 30
+ 0.444336 0 2 encap 556 ------- 0 0.2 5.0 -1 45
- 0.444336 0 2 encap 556 ------- 0 0.2 5.0 -1 45
r 0.444437 0 2 encap 556 ------- 0 0.2 5.0 -1 39
+ 0.444437 2 5 encap 556 ------- 0 0.2 5.0 -1 39
- 0.444437 2 5 encap 556 ------- 0 0.2 5.0 -1 39
r 0.444517 1 3 cbr 536 ------- 1 0.1 1073741824.0 4 8
r 0.444523 0 1 cbr 536 ------- 1 0.1 1073741824.0 7 14
+ 0.444523 1 3 cbr 536 ------- 1 0.1 1073741824.0 7 14
- 0.444523 1 3 cbr 536 ------- 1 0.1 1073741824.0 7 14
r 0.444528 2 0 cbr 536 ------- 1 0.1 1073741824.0 10 20
+ 0.444528 0 1 cbr 536 ------- 1 0.1 1073741824.0 10 20
- 0.444528 0 1 cbr 536 ------- 1 0.1 1073741824.0 10 20
r 0.444528 2 4 cbr 536 ------- 1 0.1 1073741824.0 10 20
r 0.444533 5 2 cbr 536 ------- 1 0.1 1073741824.0 13 26
+ 0.444533 2 0 cbr 536 ------- 1 0.1 1073741824.0 13 26
- 0.444533 2 0 cbr 536 ------- 1 0.1 1073741824.0 13 26
+ 0.444533 2 4 cbr 536 ------- 1 0.1 1073741824.0 13 26
- 0.444533 2 4 cbr 536 ------- 1 0.1 1073741824.0 13 26
r 0.444539 2 5 encap 556 ------- 0 0.2 5.0 -1 33
+ 0.444539 5 2 cbr 536 ------- 1 0.1 1073741824.0 16 32
- 0.444539 5 2 cbr 536 ------- 1 0.1 1073741824.0 16 32
+ 0.448624 0 2 encap 556 ------- 0 0.2 5.0 -1 47
- 0.448624 0 2 encap 556 ------- 0 0.2 5.0 -1 47
r 0.448725 0 2 encap 556 ------- 0 0.2 5.0 -1 41
+ 0.448725 2 5 encap 556 ------- 0 0.2 5.0 -1 41
- 0.448725 2 5 encap 556 ------- 0 0.2 5.0 -1 41
r 0.448805 1 3 cbr 536 ------- 1 0.1 1073741824.0 5 10
r 0.448811 0 1 cbr 536 ------- 1 0.1 1073741824.0 8 16
+ 0.448811 1 3 cbr 536 ------- 1 0.1 1073741824.0 8 16
- 0.448811 1 3 cbr 536 ------- 1 0.1 1073741824.0 8 16
r 0.448816 2 0 cbr 536 ------- 1 0.1 1073741824.0 11 22
+ 0.448816 0 1 cbr 536 ------- 1 0.1 1073741824.0 11 22
- 0.448816 0 1 cbr 536 ------- 1 0.1 1073741824.0 11 22
r 0.448816 2 4 cbr 536 ------- 1 0.1 1073741824.0 11 22
r 0.448821 5 2 cbr 536 ------- 1 0.1 1073741824.0 14 28
+ 0.448821 2 0 cbr 536 ------- 1 0.1 1073741824.0 14 28
- 0.448821 2 0 cbr 536 ------- 1 0.1 1073741824.0 14 28
+ 0.448821 2 4 cbr 536 ------- 1 0.1 1073741824.0 14 28
- 0.448821 2 4 cbr 536 ------- 1 0.1 1073741824.0 14 28
r 0.448827 2 5 encap 556 ------- 0 0.2 5.0 -1 35
+ 0.448827 5 2 cbr 536 ------- 1 0.1 1073741824.0 17 34
- 0.448827 5 2 cbr 536 ------- 1 0.1 1073741824.0 17 34
+ 0.452912 0 2 encap 556 ------- 0 0.2 5.0 -1 49
- 0.452912 0 2 encap 556 ------- 0 0.2 5.0 -1 49
r 0.453013 0 2 encap 556 ------- 0 0.2 5.0 -1 43
+ 0.453013 2 5 encap 556 ------- 0 0.2 5.0 -1 43
- 0.453013 2 5 encap 556 ------- 0 0.2 5.0 -1 43
r 0.453093 1 3 cbr 536 ------- 1 0.1 1073741824.0 6 12
r 0.453099 0 1 cbr 536 ------- 1 0.1 1073741824.0 9 18
+ 0.453099 1 3 cbr 536 ------- 1 0.1 1073741824.0 9 18
- 0.453099 1 3 cbr 536 ------- 1 0.1 1073741824.0 9 18
r 0.453104 2 0 cbr 536 ------- 1 0.1 1073741824.0 12 24
+ 0.453104 0 1 cbr 536 ------- 1 0.1 1073741824.0 12 24
- 0.453104 0 1 cbr 536 ------- 1 0.1 1073741824.0 12 24
r 0.453104 2 4 cbr 536 ------- 1 0.1 1073741824.0 12 24
r 0.453109 5 2 cbr 536 ------- 1 0.1 1073741824.0 15 30
+ 0.453109 2 0 cbr 536 ------- 1 0.1 1073741824.0 15 30
- 0.453109 2 0 cbr 536 ------- 1 0.1 1073741824.0 15 30
+ 0.453109 2 4 cbr 536 ------- 1 0.1 1073741824.0 15 30
- 0.453109 2 4 cbr 536 ------- 1 0.1 1073741824.0 15 30
r 0.453115 2 5 encap 556 ------- 0 0.2 5.0 -1 37
+ 0.453115 5 2 cbr 536 ------- 1 0.1 1073741824.0 18 36
- 0.453115 5 2 cbr 536 ------- 1 0.1 1073741824.0 18 36
+ 0.4572 0 2 encap 556 ------- 0 0.2 5.0 -1 51
- 0.4572 0 2 encap 556 ------- 0 0.2 5.0 -1 51
r 0.457301 0 2 encap 556 ------- 0 0.2 5.0 -1 45
+ 0.457301 2 5 encap 556 ------- 0 0.2 5.0 -1 45
- 0.457301 2 5 encap 556 ------- 0 0.2 5.0 -1 45
r 0.457381 1 3 cbr 536 ------- 1 0.1 1073741824.0 7 14
r 0.457387 0 1 cbr 536 ------- 1 0.1 1073741824.0 10 20
+ 0.457387 1 3 cbr 536 ------- 1 0.1 1073741824.0 10 20
- 0.457387 1 3 cbr 536 ------- 1 0.1 1073741824.0 10 20
r 0.457392 2 0 cbr 536 ------- 1 0.1 1073741824.0 13 26
+ 0.457392 0 1 cbr 536 ------- 1 0.1 1073741824.0 13 26
- 0.457392 0 1 cbr 536 ------- 1 0.1 1073741824.0 13 26
r 0.457392 2 4 cbr 536 ------- 1 0.1 1073741824.0 13 26
r 0.457397 5 2 cbr 536 ------- 1 0.1 1073741824.0 16 32
+ 0.457397 2 0 cbr 536 ------- 1 0.1 1073741824.0 16 32
- 0.457397 2 0 cbr 536 ------- 1 0.1 1073741824.0 16 32
+ 0.457397 2 4 cbr 536 ------- 1 0.1 1073741824.0 16 32
- 0.457397 2 4 cbr 536 ------- 1 0.1 1073741824.0 16 32
r 0.457403 2 5 encap 556 ------- 0 0.2 5.0 -1 39
+ 0.457403 5 2 cbr 536 ------- 1 0.1 1073741824.0 19 38
- 0.457403 5 2 cbr 536 ------- 1 0.1 1073741824.0 19 38
+ 0.461488 0 2 encap 556 ------- 0 0.2 5.0 -1 53
- 0.461488 0 2 encap 556 ------- 0 0.2 5.0 -1 53
r 0.461589 0 2 encap 556 ------- 0 0.2 5.0 -1 47
+ 0.461589 2 5 encap 556 ------- 0 0.2 5.0 -1 47
- 0.461589 2 5 encap 556 ------- 0 0.2 5.0 -1 47
r 0.461669 1 3 cbr 536 ------- 1 0.1 1073741824.0 8 16
r 0.461675 0 1 cbr 536 ------- 1 0.1 1073741824.0 11 22
+ 0.461675 1 3 cbr 536 ------- 1 0.1 1073741824.0 11 22
- 0.461675 1 3 cbr 536 ------- 1 0.1 1073741824.0 11 22
r 0.46168 2 0 cbr 536 ------- 1 0.1 1073741824.0 14 28
+ 0.46168 0 1 cbr 536 ------- 1 0.1 1073741824.0 14 28
- 0.46168 0 1 cbr 536 ------- 1 0.1 1073741824.0 14 28
r 0.46168 2 4 cbr 536 ------- 1 0.1 1073741824.0 14 28
r 0.461685 5 2 cbr 536 ------- 1 0.1 1073741824.0 17 34
+ 0.461685 2 0 cbr 536 ------- 1 0.1 1073741824.0 17 34
- 0.461685 2 0 cbr 536 ------- 1 0.1 1073741824.0 17 34
+ 0.461685 2 4 cbr 536 ------- 1 0.1 1073741824.0 17 34
- 0.461685 2 4 cbr 536 ------- 1 0.1 1073741824.0 17 34
r 0.461691 2 5 encap 556 ------- 0 0.2 5.0 -1 41
+ 0.461691 5 2 cbr 536 ------- 1 0.1 1073741824.0 20 40
- 0.461691 5 2 cbr 536 ------- 1 0.1 1073741824.0 20 40
+ 0.465776 0 2 encap 556 ------- 0 0.2 5.0 -1 55
- 0.465776 0 2 encap 556 ------- 0 0.2 5.0 -1 55
r 0.465877 0 2 encap 556 ------- 0 0.2 5.0 -1 49
+ 0.465877 2 5 encap 556 ------- 0 0.2 5.0 -1 49
- 0.465877 2 5 encap 556 ------- 0 0.2 5.0 -1 49
r 0.465957 1 3 cbr 536 ------- 1 0.1 1073741824.0 9 18
r 0.465963 0 1 cbr 536 ------- 1 0.1 1073741824.0 12 24
+ 0.465963 1 3 cbr 536 ------- 1 0.1 1073741824.0 12 24
- 0.465963 1 3 cbr 536 ------- 1 0.1 1073741824.0 12 24
r 0.465968 2 0 cbr 536 ------- 1 0.1 1073741824.0 15 30
+ 0.465968 0 1 cbr 536 ------- 1 0.1 1073741824.0 15 30
- 0.465968 0 1 cbr 536 ------- 1 0.1 1073741824.0 15 30
r 0.465968 2 4 cbr 536 ------- 1 0.1 1073741824.0 15 30
r 0.465973 5 2 cbr 536 ------- 1 0.1 1073741824.0 18 36
+ 0.465973 2 0 cbr 536 ------- 1 0.1 1073741824.0 18 36
- 0.465973 2 0 cbr 536 ------- 1 0.1 1073741824.0 18 36
+ 0.465973 2 4 cbr 536 ------- 1 0.1 1073741824.0 18 36
- 0.465973 2 4 cbr 536 ------- 1 0.1 1073741824.0 18 36
r 0.465979 2 5 encap 556 ------- 0 0.2 5.0 -1 43
+ 0.465979 5 2 cbr 536 ------- 1 0.1 1073741824.0 21 42
- 0.465979 5 2 cbr 536 ------- 1 0.1 1073741824.0 21 42
+ 0.470064 0 2 encap 556 ------- 0 0.2 5.0 -1 57
- 0.470064 0 2 encap 556 ------- 0 0.2 5.0 -1 57
r 0.470165 0 2 encap 556 ------- 0 0.2 5.0 -1 51
+ 0.470165 2 5 encap 556 ------- 0 0.2 5.0 -1 51
- 0.470165 2 5 encap 556 ------- 0 0.2 5.0 -1 51
r 0.470245 1 3 cbr 536 ------- 1 0.1 1073741824.0 10 20
r 0.470251 0 1 cbr 536 ------- 1 0.1 1073741824.0 13 26
+ 0.470251 1 3 cbr 536 ------- 1 0.1 1073741824.0 13 26
- 0.470251 1 3 cbr 536 ------- 1 0.1 1073741824.0 13 26
r 0.470256 2 0 cbr 536 ------- 1 0.1 1073741824.0 16 32
+ 0.470256 0 1 cbr 536 ------- 1 0.1 1073741824.0 16 32
- 0.470256 0 1 cbr 536 ------- 1 0.1 1073741824.0 16 32
r 0.470256 2 4 cbr 536 ------- 1 0.1 1073741824.0 16 32
r 0.470261 5 2 cbr 536 ------- 1 0.1 1073741824.0 19 38
+ 0.470261 2 0 cbr 536 ------- 1 0.1 1073741824.0 19 38
- 0.470261 2 0 cbr 536 ------- 1 0.1 1073741824.0 19 38
+ 0.470261 2 4 cbr 536 ------- 1 0.1 1073741824.0 19 38
- 0.470261 2 4 cbr 536 ------- 1 0.1 1073741824.0 19 38
r 0.470267 2 5 encap 556 ------- 0 0.2 5.0 -1 45
+ 0.470267 5 2 cbr 536 ------- 1 0.1 1073741824.0 22 44
- 0.470267 5 2 cbr 536 ------- 1 0.1 1073741824.0 22 44
+ 0.474352 0 2 encap 556 ------- 0 0.2 5.0 -1 59
- 0.474352 0 2 encap 556 ------- 0 0.2 5.0 -1 59
r 0.474453 0 2 encap 556 ------- 0 0.2 5.0 -1 53
+ 0.474453 2 5 encap 556 ------- 0 0.2 5.0 -1 53
- 0.474453 2 5 encap 556 ------- 0 0.2 5.0 -1 53
r 0.474533 1 3 cbr 536 ------- 1 0.1 1073741824.0 11 22
r 0.474539 0 1 cbr 536 ------- 1 0.1 1073741824.0 14 28
+ 0.474539 1 3 cbr 536 ------- 1 0.1 1073741824.0 14 28
- 0.474539 1 3 cbr 536 ------- 1 0.1 1073741824.0 14 28
r 0.474544 2 0 cbr 536 ------- 1 0.1 1073741824.0 17 34
+ 0.474544 0 1 cbr 536 ------- 1 0.1 1073741824.0 17 34
- 0.474544 0 1 cbr 536 ------- 1 0.1 1073741824.0 17 34
r 0.474544 2 4 cbr 536 ------- 1 0.1 1073741824.0 17 34
r 0.474549 5 2 cbr 536 ------- 1 0.1 1073741824.0 20 40
+ 0.474549 2 0 cbr 536 ------- 1 0.1 1073741824.0 20 40
- 0.474549 2 0 cbr 536 ------- 1 0.1 1073741824.0 20 40
+ 0.474549 2 4 cbr 536 ------- 1 0.1 1073741824.0 20 40
- 0.474549 2 4 cbr 536 ------- 1 0.1 1073741824.0 20 40
r 0.474555 2 5 encap 556 ------- 0 0.2 5.0 -1 47
+ 0.474555 5 2 cbr 536 ------- 1 0.1 1073741824.0 23 46
- 0.474555 5 2 cbr 536 ------- 1 0.1 1073741824.0 23 46
+ 0.47864 0 2 encap 556 ------- 0 0.2 5.0 -1 61
- 0.47864 0 2 encap 556 ------- 0 0.2 5.0 -1 61
r 0.478741 0 2 encap 556 ------- 0 0.2 5.0 -1 55
+ 0.478741 2 5 encap 556 ------- 0 0.2 5.0 -1 55
- 0.478741 2 5 encap 556 ------- 0 0.2 5.0 -1 55
r 0.478821 1 3 cbr 536 ------- 1 0.1 1073741824.0 12 24
r 0.478827 0 1 cbr 536 ------- 1 0.1 1073741824.0 15 30
+ 0.478827 1 3 cbr 536 ------- 1 0.1 1073741824.0 15 30
- 0.478827 1 3 cbr 536 ------- 1 0.1 1073741824.0 15 30
r 0.478832 2 0 cbr 536 ------- 1 0.1 1073741824.0 18 36
+ 0.478832 0 1 cbr 536 ------- 1 0.1 1073741824.0 18 36
- 0.478832 0 1 cbr 536 ------- 1 0.1 1073741824.0 18 36
r 0.478832 2 4 cbr 536 ------- 1 0.1 1073741824.0 18 36
r 0.478837 5 2 cbr 536 ------- 1 0.1 1073741824.0 21 42
+ 0.478837 2 0 cbr 536 ------- 1 0.1 1073741824.0 21 42
- 0.478837 2 0 cbr 536 ------- 1 0.1 1073741824.0 21 42
+ 0.478837 2 4 cbr 536 ------- 1 0.1 1073741824.0 21 42
- 0.478837 2 4 cbr 536 ------- 1 0.1 1073741824.0 21 42
r 0.478843 2 5 encap 556 ------- 0 0.2 5.0 -1 49
+ 0.478843 5 2 cbr 536 ------- 1 0.1 1073741824.0 24 48
- 0.478843 5 2 cbr 536 ------- 1 0.1 1073741824.0 24 48
+ 0.482928 0 2 encap 556 ------- 0 0.2 5.0 -1 63
- 0.482928 0 2 encap 556 ------- 0 0.2 5.0 -1 63
r 0.483029 0 2 encap 556 ------- 0 0.2 5.0 -1 57
+ 0.483029 2 5 encap 556 ------- 0 0.2 5.0 -1 57
- 0.483029 2 5 encap 556 ------- 0 0.2 5.0 -1 57
r 0.483109 1 3 cbr 536 ------- 1 0.1 1073741824.0 13 26
r 0.483115 0 1 cbr 536 ------- 1 0.1 1073741824.0 16 32
+ 0.483115 1 3 cbr 536 ------- 1 0.1 1073741824.0 16 32
- 0.483115 1 3 cbr 536 ------- 1 0.1 1073741824.0 16 32
r 0.48312 2 0 cbr 536 ------- 1 0.1 1073741824.0 19 38
+ 0.48312 0 1 cbr 536 ------- 1 0.1 1073741824.0 19 38
- 0.48312 0 1 cbr 536 ------- 1 0.1 1073741824.0 19 38
r 0.48312 2 4 cbr 536 ------- 1 0.1 1073741824.0 19 38
r 0.483125 5 2 cbr 536 ------- 1 0.1 1073741824.0 22 44
+ 0.483125 2 0 cbr 536 ------- 1 0.1 1073741824.0 22 44
- 0.483125 2 0 cbr 536 ------- 1 0.1 1073741824.0 22 44
+ 0.483125 2 4 cbr 536 ------- 1 0.1 1073741824.0 22 44
- 0.483125 2 4 cbr 536 ------- 1 0.1 1073741824.0 22 44
r 0.483131 2 5 encap 556 ------- 0 0.2 5.0 -1 51
+ 0.483131 5 2 cbr 536 ------- 1 0.1 1073741824.0 25 50
- 0.483131 5 2 cbr 536 ------- 1 0.1 1073741824.0 25 50
+ 0.487216 0 2 encap 556 ------- 0 0.2 5.0 -1 65
- 0.487216 0 2 encap 556 ------- 0 0.2 5.0 -1 65
r 0.487317 0 2 encap 556 ------- 0 0.2 5.0 -1 59
+ 0.487317 2 5 encap 556 ------- 0 0.2 5.0 -1 59
- 0.487317 2 5 encap 556 ------- 0 0.2 5.0 -1 59
r 0.487397 1 3 cbr 536 ------- 1 0.1 1073741824.0 14 28
r 0.487403 0 1 cbr 536 ------- 1 0.1 1073741824.0 17 34
+ 0.487403 1 3 cbr 536 ------- 1 0.1 1073741824.0 17 34
- 0.487403 1 3 cbr 536 ------- 1 0.1 1073741824.0 17 34
r 0.487408 2 0 cbr 536 ------- 1 0.1 1073741824.0 20 40
+ 0.487408 0 1 cbr 536 ------- 1 0.1 1073741824.0 20 40
- 0.487408 0 1 cbr 536 ------- 1 0.1 1073741824.0 20 40
r 0.487408 2 4 cbr 536 ------- 1 0.1 1073741824.0 20 40
r 0.487413 5 2 cbr 536 ------- 1 0.1 1073741824.0 23 46
+ 0.487413 2 0 cbr 536 ------- 1 0.1 1073741824.0 23 46
- 0.487413 2 0 cbr 536 ------- 1 0.1 1073741824.0 23 46
+ 0.487413 2 4 cbr 536 ------- 1 0.1 1073741824.0 23 46
- 0.487413 2 4 cbr 536 ------- 1 0.1 1073741824.0 23 46
r 0.487419 2 5 encap 556 ------- 0 0.2 5.0 -1 53
+ 0.487419 5 2 cbr 536 ------- 1 0.1 1073741824.0 26 52
- 0.487419 5 2 cbr 536 ------- 1 0.1 1073741824.0 26 52
+ 0.491504 0 2 encap 556 ------- 0 0.2 5.0 -1 67
- 0.491504 0 2 encap 556 ------- 0 0.2 5.0 -1 67
r 0.491605 0 2 encap 556 ------- 0 0.2 5.0 -1 61
+ 0.491605 2 5 encap 556 ------- 0 0.2 5.0 -1 61
- 0.491605 2 5 encap 556 ------- 0 0.2 5.0 -1 61
r 0.491685 1 3 cbr 536 ------- 1 0.1 1073741824.0 15 30
r 0.491691 0 1 cbr 536 ------- 1 0.1 1073741824.0 18 36
+ 0.491691 1 3 cbr 536 ------- 1 0.1 1073741824.0 18 36
- 0.491691 1 3 cbr 536 ------- 1 0.1 1073741824.0 18 36
r 0.491696 2 0 cbr 536 ------- 1 0.1 1073741824.0 21 42
+ 0.491696 0 1 cbr 536 ------- 1 0.1 1073741824.0 21 42
- 0.491696 0 1 cbr 536 ------- 1 0.1 1073741824.0 21 42
r 0.491696 2 4 cbr 536 ------- 1 0.1 1073741824.0 21 42
r 0.491701 5 2 cbr 536 ------- 1 0.1 1073741824.0 24 48
+ 0.491701 2 0 cbr 536 ------- 1 0.1 1073741824.0 24 48
- 0.491701 2 0 cbr 536 ------- 1 0.1 1073741824.0 24 48
+ 0.491701 2 4 cbr 536 ------- 1 0.1 1073741824.0 24 48
- 0.491701 2 4 cbr 536 ------- 1 0.1 1073741824.0 24 48
r 0.491707 2 5 encap 556 ------- 0 0.2 5.0 -1 55
+ 0.491707 5 2 cbr 536 ------- 1 0.1 1073741824.0 27 54
- 0.491707 5 2 cbr 536 ------- 1 0.1 1073741824.0 27 54
+ 0.495792 0 2 encap 556 ------- 0 0.2 5.0 -1 69
- 0.495792 0 2 encap 556 ------- 0 0.2 5.0 -1 69
r 0.495893 0 2 encap 556 ------- 0 0.2 5.0 -1 63
+ 0.495893 2 5 encap 556 ------- 0 0.2 5.0 -1 63
- 0.495893 2 5 encap 556 ------- 0 0.2 5.0 -1 63
r 0.495973 1 3 cbr 536 ------- 1 0.1 1073741824.0 16 32
r 0.495979 0 1 cbr 536 ------- 1 0.1 1073741824.0 19 38
+ 0.495979 1 3 cbr 536 ------- 1 0.1 1073741824.0 19 38
- 0.495979 1 3 cbr 536 ------- 1 0.1 1073741824.0 19 38
r 0.495984 2 0 cbr 536 ------- 1 0.1 1073741824.0 22 44
+ 0.495984 0 1 cbr 536 ------- 1 0.1 1073741824.0 22 44
- 0.495984 0 1 cbr 536 ------- 1 0.1 1073741824.0 22 44
r 0.495984 2 4 cbr 536 ------- 1 0.1 1073741824.0 22 44
r 0.495989 5 2 cbr 536 ------- 1 0.1 1073741824.0 25 50
+ 0.495989 2 0 cbr 536 ------- 1 0.1 1073741824.0 25 50
- 0.495989 2 0 cbr 536 ------- 1 0.1 1073741824.0 25 50
+ 0.495989 2 4 cbr 536 ------- 1 0.1 1073741824.0 25 50
- 0.495989 2 4 cbr 536 ------- 1 0.1 1073741824.0 25 50
r 0.495995 2 5 encap 556 ------- 0 0.2 5.0 -1 57
+ 0.495995 5 2 cbr 536 ------- 1 0.1 1073741824.0 28 56
- 0.495995 5 2 cbr 536 ------- 1 0.1 1073741824.0 28 56
v 0.5 eval {set sim_annotation {0.5 5 join-group 1073741824}}
+ 0.50008 0 2 encap 556 ------- 0 0.2 5.0 -1 71
- 0.50008 0 2 encap 556 ------- 0 0.2 5.0 -1 71
r 0.500181 0 2 encap 556 ------- 0 0.2 5.0 -1 65
+ 0.500181 2 5 encap 556 ------- 0 0.2 5.0 -1 65
- 0.500181 2 5 encap 556 ------- 0 0.2 5.0 -1 65
r 0.500261 1 3 cbr 536 ------- 1 0.1 1073741824.0 17 34
r 0.500267 0 1 cbr 536 ------- 1 0.1 1073741824.0 20 40
+ 0.500267 1 3 cbr 536 ------- 1 0.1 1073741824.0 20 40
- 0.500267 1 3 cbr 536 ------- 1 0.1 1073741824.0 20 40
r 0.500272 2 0 cbr 536 ------- 1 0.1 1073741824.0 23 46
+ 0.500272 0 1 cbr 536 ------- 1 0.1 1073741824.0 23 46
- 0.500272 0 1 cbr 536 ------- 1 0.1 1073741824.0 23 46
r 0.500272 2 4 cbr 536 ------- 1 0.1 1073741824.0 23 46
r 0.500277 5 2 cbr 536 ------- 1 0.1 1073741824.0 26 52
+ 0.500277 2 0 cbr 536 ------- 1 0.1 1073741824.0 26 52
- 0.500277 2 0 cbr 536 ------- 1 0.1 1073741824.0 26 52
+ 0.500277 2 4 cbr 536 ------- 1 0.1 1073741824.0 26 52
- 0.500277 2 4 cbr 536 ------- 1 0.1 1073741824.0 26 52