+ 0.25 3 1 encap 556 ------- 0 3.3 2.0 -1 13
- 0.25 3 1 encap 556 ------- 0 3.3 2.0 -1 13
+ 0.254288 3 1 encap 556 ------- 0 3.3 2.0 -1 16
- 0.254288 3 1 encap 556 ------- 0 3.3 2.0 -1 16
+ 0.258576 3 1 encap 556 ------- 0 3.3 2.0 -1 19
- 0.258576 3 1 encap 556 ------- 0 3.3 2.0 -1 19
+ 0.262864 3 1 encap 556 ------- 0 3.3 2.0 -1 22
- 0.262864 3 1 encap 556 ------- 0 3.3 2.0 -1 22
r 0.262965 3 1 encap 556 ------- 0 3.3 2.0 -1 13
+ 0.262965 1 2 encap 556 ------- 0 3.3 2.0 -1 13
- 0.262965 1 2 encap 556 ------- 0 3.3 2.0 -1 13
+ 0.267152 3 1 encap 556 ------- 0 3.3 2.0 -1 25
- 0.267152 3 1 encap 556 ------- 0 3.3 2.0 -1 25
r 0.267253 3 1 encap 556 ------- 0 3.3 2.0 -1 16
+ 0.267253 1 2 encap 556 ------- 0 3.3 2.0 -1 16
- 0.267253 1 2 encap 556 ------- 0 3.3 2.0 -1 16
+ 0.27144 3 1 encap 556 ------- 0 3.3 2.0 -1 28
- 0.27144 3 1 encap 556 ------- 0 3.3 2.0 -1 28
r 0.271541 3 1 encap 556 ------- 0 3.3 2.0 -1 19
+ 0.271541 1 2 encap 556 ------- 0 3.3 2.0 -1 19
- 0.271541 1 2 encap 556 ------- 0 3.3 2.0 -1 19
+ 0.275728 3 1 encap 556 ------- 0 3.3 2.0 -1 31
- 0.275728 3 1 encap 556 ------- 0 3.3 2.0 -1 31
r 0.275829 3 1 encap 556 ------- 0 3.3 2.0 -1 22
+ 0.275829 1 2 encap 556 ------- 0 3.3 2.0 -1 22
- 0.275829 1 2 encap 556 ------- 0 3.3 2.0 -1 22
r 0.275931 1 2 encap 556 ------- 0 3.3 2.0 -1 13
+ 0.280016 3 1 encap 556 ------- 0 3.3 2.0 -1 34
- 0.280016 3 1 encap 556 ------- 0 3.3 2.0 -1 34
r 0.280117 3 1 encap 556 ------- 0 3.3 2.0 -1 25
+ 0.280117 1 2 encap 556 ------- 0 3.3 2.0 -1 25
- 0.280117 1 2 encap 556 ------- 0 3.3 2.0 -1 25
r 0.280219 1 2 encap 556 ------- 0 3.3 2.0 -1 16
+ 0.284304 3 1 encap 556 ------- 0 3.3 2.0 -1 37
- 0.284304 3 1 encap 556 ------- 0 3.3 2.0 -1 37
r 0.284405 3 1 encap 556 ------- 0 3.3 2.0 -1 28
+ 0.284405 1 2 encap 556 ------- 0 3.3 2.0 -1 28
- 0.284405 1 2 encap 556 ------- 0 3.3 2.0 -1 28
r 0.284507 1 2 encap 556 ------- 0 3.3 2.0 -1 19
+ 0.288592 3 1 encap 556 ------- 0 3.3 2.0 -1 40
- 0.288592 3 1 encap 556 ------- 0 3.3 2.0 -1 40
r 0.288693 3 1 encap 556 ------- 0 3.3 2.0 -1 31
+ 0.288693 1 2 encap 556 ------- 0 3.3 2.0 -1 31
- 0.288693 1 2 encap 556 ------- 0 3.3 2.0 -1 31
r 0.288795 1 2 encap 556 ------- 0 3.3 2.0 -1 22
+ 0.29288 3 1 encap 556 ------- 0 3.3 2.0 -1 43
- 0.29288 3 1 encap 556 ------- 0 3.3 2.0 -1 43
r 0.292981 3 1 encap 556 ------- 0 3.3 2.0 -1 34
+ 0.292981 1 2 encap 556 ------- 0 3.3 2.0 -1 34
- 0.292981 1 2 encap 556 ------- 0 3.3 2.0 -1 34
r 0.293083 1 2 encap 556 ------- 0 3.3 2.0 -1 25
+ 0.297168 3 1 encap 556 ------- 0 3.3 2.0 -1 46
- 0.297168 3 1 encap 556 ------- 0 3.3 2.0 -1 46
r 0.297269 3 1 encap 556 ------- 0 3.3 2.0 -1 37
+ 0.297269 1 2 encap 556 ------- 0 3.3 2.0 -1 37
- 0.297269 1 2 encap 556 ------- 0 3.3 2.0 -1 37
r 0.297371 1 2 encap 556 ------- 0 3.3 2.0 -1 28
v 0.3 eval {set sim_annotation {0.29999999999999999 1 join-group 1073741824}}
+ 0.301456 3 1 encap 556 ------- 0 3.3 2.0 -1 49
- 0.301456 3 1 encap 556 ------- 0 3.3 2.0 -1 49
r 0.301557 3 1 encap 556 ------- 0 3.3 2.0 -1 40
+ 0.301557 1 2 encap 556 ------- 0 3.3 2.0 -1 40
- 0.301557 1 2 encap 556 ------- 0 3.3 2.0 -1 40
r 0.301659 1 2 encap 556 ------- 0 3.3 2.0 -1 31
+ 0.301659 2 1 cbr 536 ------- 2 3.1 1073741824.0 6 30
- 0.301659 2 1 cbr 536 ------- 2 3.1 1073741824.0 6 30
+ 0.302912 2 1 cbr 536 ------- 1 2.1 1073741824.0 24 50
- 0.304517 2 1 cbr 536 ------- 1 2.1 1073741824.0 24 50
+ 0.305744 3 1 encap 556 ------- 0 3.3 2.0 -1 52
- 0.305744 3 1 encap 556 ------- 0 3.3 2.0 -1 52
r 0.305845 3 1 encap 556 ------- 0 3.3 2.0 -1 43
+ 0.305845 1 2 encap 556 ------- 0 3.3 2.0 -1 43
- 0.305845 1 2 encap 556 ------- 0 3.3 2.0 -1 43
r 0.305947 1 2 encap 556 ------- 0 3.3 2.0 -1 34
+ 0.305947 2 1 cbr 536 ------- 2 3.1 1073741824.0 7 33
+ 0.3072 2 1 cbr 536 ------- 1 2.1 1073741824.0 25 53
- 0.307376 2 1 cbr 536 ------- 2 3.1 1073741824.0 7 33
+ 0.310032 3 1 encap 556 ------- 0 3.3 2.0 -1 55
- 0.310032 3 1 encap 556 ------- 0 3.3 2.0 -1 55
r 0.310133 3 1 encap 556 ------- 0 3.3 2.0 -1 46
+ 0.310133 1 2 encap 556 ------- 0 3.3 2.0 -1 46
- 0.310133 1 2 encap 556 ------- 0 3.3 2.0 -1 46
r 0.310235 1 2 encap 556 ------- 0 3.3 2.0 -1 37
+ 0.310235 2 1 cbr 536 ------- 2 3.1 1073741824.0 8 36
- 0.310235 2 1 cbr 536 ------- 1 2.1 1073741824.0 25 53
+ 0.311488 2 1 cbr 536 ------- 1 2.1 1073741824.0 26 56
- 0.313093 2 1 cbr 536 ------- 2 3.1 1073741824.0 8 36
+ 0.31432 3 1 encap 556 ------- 0 3.3 2.0 -1 58
- 0.31432 3 1 encap 556 ------- 0 3.3 2.0 -1 58
r 0.314421 3 1 encap 556 ------- 0 3.3 2.0 -1 49
+ 0.314421 1 2 encap 556 ------- 0 3.3 2.0 -1 49
- 0.314421 1 2 encap 556 ------- 0 3.3 2.0 -1 49
r 0.314517 2 1 cbr 536 ------- 2 3.1 1073741824.0 6 30
r 0.314523 1 2 encap 556 ------- 0 3.3 2.0 -1 40
+ 0.314523 2 1 cbr 536 ------- 2 3.1 1073741824.0 9 39
+ 0.315776 2 1 cbr 536 ------- 1 2.1 1073741824.0 27 59
- 0.315952 2 1 cbr 536 ------- 1 2.1 1073741824.0 26 56
r 0.317376 2 1 cbr 536 ------- 1 2.1 1073741824.0 24 50
+ 0.318608 3 1 encap 556 ------- 0 3.3 2.0 -1 61
- 0.318608 3 1 encap 556 ------- 0 3.3 2.0 -1 61
r 0.318709 3 1 encap 556 ------- 0 3.3 2.0 -1 52
+ 0.318709 1 2 encap 556 ------- 0 3.3 2.0 -1 52
- 0.318709 1 2 encap 556 ------- 0 3.3 2.0 -1 52
r 0.318811 1 2 encap 556 ------- 0 3.3 2.0 -1 43
+ 0.318811 2 1 cbr 536 ------- 2 3.1 1073741824.0 10 42
- 0.318811 2 1 cbr 536 ------- 2 3.1 1073741824.0 9 39
+ 0.320064 2 1 cbr 536 ------- 1 2.1 1073741824.0 28 62
r 0.320235 2 1 cbr 536 ------- 2 3.1 1073741824.0 7 33
- 0.321669 2 1 cbr 536 ------- 1 2.1 1073741824.0 27 59
+ 0.322896 3 1 encap 556 ------- 0 3.3 2.0 -1 64
- 0.322896 3 1 encap 556 ------- 0 3.3 2.0 -1 64
r 0.322997 3 1 encap 556 ------- 0 3.3 2.0 -1 55
+ 0.322997 1 2 encap 556 ------- 0 3.3 2.0 -1 55
- 0.322997 1 2 encap 556 ------- 0 3.3 2.0 -1 55
r 0.323093 2 1 cbr 536 ------- 1 2.1 1073741824.0 25 53
r 0.323099 1 2 encap 556 ------- 0 3.3 2.0 -1 46
+ 0.323099 2 1 cbr 536 ------- 2 3.1 1073741824.0 11 45
+ 0.324352 2 1 cbr 536 ------- 1 2.1 1073741824.0 29 65
- 0.324528 2 1 cbr 536 ------- 2 3.1 1073741824.0 10 42
r 0.325952 2 1 cbr 536 ------- 2 3.1 1073741824.0 8 36
+ 0.327184 3 1 encap 556 ------- 0 3.3 2.0 -1 67
- 0.327184 3 1 encap 556 ------- 0 3.3 2.0 -1 67
r 0.327285 3 1 encap 556 ------- 0 3.3 2.0 -1 58
+ 0.327285 1 2 encap 556 ------- 0 3.3 2.0 -1 58
- 0.327285 1 2 encap 556 ------- 0 3.3 2.0 -1 58
r 0.327387 1 2 encap 556 ------- 0 3.3 2.0 -1 49
+ 0.327387 2 1 cbr 536 ------- 2 3.1 1073741824.0 12 48
- 0.327387 2 1 cbr 536 ------- 1 2.1 1073741824.0 28 62
+ 0.32864 2 1 cbr 536 ------- 1 2.1 1073741824.0 30 68
r 0.328811 2 1 cbr 536 ------- 1 2.1 1073741824.0 26 56
- 0.330245 2 1 cbr 536 ------- 2 3.1 1073741824.0 11 45
+ 0.331472 3 1 encap 556 ------- 0 3.3 2.0 -1 70
- 0.331472 3 1 encap 556 ------- 0 3.3 2.0 -1 70
r 0.331573 3 1 encap 556 ------- 0 3.3 2.0 -1 61
+ 0.331573 1 2 encap 556 ------- 0 3.3 2.0 -1 61
- 0.331573 1 2 encap 556 ------- 0 3.3 2.0 -1 61
r 0.331669 2 1 cbr 536 ------- 2 3.1 1073741824.0 9 39
r 0.331675 1 2 encap 556 ------- 0 3.3 2.0 -1 52
+ 0.331675 2 1 cbr 536 ------- 2 3.1 1073741824.0 13 51
+ 0.332928 2 1 cbr 536 ------- 1 2.1 1073741824.0 31 71
- 0.333104 2 1 cbr 536 ------- 1 2.1 1073741824.0 29 65
r 0.334528 2 1 cbr 536 ------- 1 2.1 1073741824.0 27 59
+ 0.33576 3 1 encap 556 ------- 0 3.3 2.0 -1 73
- 0.33576 3 1 encap 556 ------- 0 3.3 2.0 -1 73
r 0.335861 3 1 encap 556 ------- 0 3.3 2.0 -1 64
+ 0.335861 1 2 encap 556 ------- 0 3.3 2.0 -1 64
- 0.335861 1 2 encap 556 ------- 0 3.3 2.0 -1 64
r 0.335963 1 2 encap 556 ------- 0 3.3 2.0 -1 55
+ 0.335963 2 1 cbr 536 ------- 2 3.1 1073741824.0 14 54
- 0.335963 2 1 cbr 536 ------- 2 3.1 1073741824.0 12 48
+ 0.337216 2 1 cbr 536 ------- 1 2.1 1073741824.0 32 74
r 0.337387 2 1 cbr 536 ------- 2 3.1 1073741824.0 10 42
- 0.338821 2 1 cbr 536 ------- 1 2.1 1073741824.0 30 68
+ 0.340048 3 1 encap 556 ------- 0 3.3 2.0 -1 76
- 0.340048 3 1 encap 556 ------- 0 3.3 2.0 -1 76
r 0.340149 3 1 encap 556 ------- 0 3.3 2.0 -1 67
+ 0.340149 1 2 encap 556 ------- 0 3.3 2.0 -1 67
- 0.340149 1 2 encap 556 ------- 0 3.3 2.0 -1 67
r 0.340245 2 1 cbr 536 ------- 1 2.1 1073741824.0 28 62
r 0.340251 1 2 encap 556 ------- 0 3.3 2.0 -1 58
+ 0.340251 2 1 cbr 536 ------- 2 3.1 1073741824.0 15 57
+ 0.341504 2 1 cbr 536 ------- 1 2.1 1073741824.0 33 77
- 0.34168 2 1 cbr 536 ------- 2 3.1 1073741824.0 13 51
r 0.343104 2 1 cbr 536 ------- 2 3.1 1073741824.0 11 45
+ 0.344336 3 1 encap 556 ------- 0 3.3 2.0 -1 79
- 0.344336 3 1 encap 556 ------- 0 3.3 2.0 -1 79
r 0.344437 3 1 encap 556 ------- 0 3.3 2.0 -1 70
+ 0.344437 1 2 encap 556 ------- 0 3.3 2.0 -1 70
- 0.344437 1 2 encap 556 ------- 0 3.3 2.0 -1 70
r 0.344539 1 2 encap 556 ------- 0 3.3 2.0 -1 61
+ 0.344539 2 1 cbr 536 ------- 2 3.1 1073741824.0 16 60
- 0.344539 2 1 cbr 536 ------- 1 2.1 1073741824.0 31 71
+ 0.345792 2 1 cbr 536 ------- 1 2.1 1073741824.0 34 80
r 0.345963 2 1 cbr 536 ------- 1 2.1 1073741824.0 29 65
- 0.347397 2 1 cbr 536 ------- 2 3.1 1073741824.0 14 54
+ 0.348624 3 1 encap 556 ------- 0 3.3 2.0 -1 82
- 0.348624 3 1 encap 556 ------- 0 3.3 2.0 -1 82
r 0.348725 3 1 encap 556 ------- 0 3.3 2.0 -1 73
+ 0.348725 1 2 encap 556 ------- 0 3.3 2.0 -1 73
- 0.348725 1 2 encap 556 ------- 0 3.3 2.0 -1 73
r 0.348821 2 1 cbr 536 ------- 2 3.1 1073741824.0 12 48
r 0.348827 1 2 encap 556 ------- 0 3.3 2.0 -1 64
+ 0.348827 2 1 cbr 536 ------- 2 3.1 1073741824.0 17 63
+ 0.35008 2 1 cbr 536 ------- 1 2.1 1073741824.0 35 83
- 0.350256 2 1 cbr 536 ------- 1 2.1 1073741824.0 32 74
r 0.35168 2 1 cbr 536 ------- 1 2.1 1073741824.0 30 68
+ 0.352912 3 1 encap 556 ------- 0 3.3 2.0 -1 85
- 0.352912 3 1 encap 556 ------- 0 3.3 2.0 -1 85
r 0.353013 3 1 encap 556 ------- 0 3.3 2.0 -1 76
+ 0.353013 1 2 encap 556 ------- 0 3.3 2.0 -1 76
- 0.353013 1 2 encap 556 ------- 0 3.3 2.0 -1 76
r 0.353115 1 2 encap 556 ------- 0 3.3 2.0 -1 67
+ 0.353115 2 1 cbr 536 ------- 2 3.1 1073741824.0 18 66
- 0.353115 2 1 cbr 536 ------- 2 3.1 1073741824.0 15 57
+ 0.354368 2 1 cbr 536 ------- 1 2.1 1073741824.0 36 86
r 0.354539 2 1 cbr 536 ------- 2 3.1 1073741824.0 13 51
- 0.355973 2 1 cbr 536 ------- 1 2.1 1073741824.0 33 77
+ 0.3572 3 1 encap 556 ------- 0 3.3 2.0 -1 88
- 0.3572 3 1 encap 556 ------- 0 3.3 2.0 -1 88
r 0.357301 3 1 encap 556 ------- 0 3.3 2.0 -1 79
+ 0.357301 1 2 encap 556 ------- 0 3.3 2.0 -1 79
- 0.357301 1 2 encap 556 ------- 0 3.3 2.0 -1 79
r 0.357397 2 1 cbr 536 ------- 1 2.1 1073741824.0 31 71
r 0.357403 1 2 encap 556 ------- 0 3.3 2.0 -1 70
+ 0.357403 2 1 cbr 536 ------- 2 3.1 1073741824.0 19 69
+ 0.358656 2 1 cbr 536 ------- 1 2.1 1073741824.0 37 89
- 0.358832 2 1 cbr 536 ------- 2 3.1 1073741824.0 16 60
r 0.360256 2 1 cbr 536 ------- 2 3.1 1073741824.0 14 54
+ 0.361488 3 1 encap 556 ------- 0 3.3 2.0 -1 91
- 0.361488 3 1 encap 556 ------- 0 3.3 2.0 -1 91
r 0.361589 3 1 encap 556 ------- 0 3.3 2.0 -1 82
+ 0.361589 1 2 encap 556 ------- 0 3.3 2.0 -1 82
- 0.361589 1 2 encap 556 ------- 0 3.3 2.0 -1 82
r 0.361691 1 2 encap 556 ------- 0 3.3 2.0 -1 73
+ 0.361691 2 1 cbr 536 ------- 2 3.1 1073741824.0 20 72
- 0.361691 2 1 cbr 536 ------- 1 2.1 1073741824.0 34 80
+ 0.362944 2 1 cbr 536 ------- 1 2.1 1073741824.0 38 92
r 0.363115 2 1 cbr 536 ------- 1 2.1 1073741824.0 32 74
- 0.364549 2 1 cbr 536 ------- 2 3.1 1073741824.0 17 63
+ 0.365776 3 1 encap 556 ------- 0 3.3 2.0 -1 94
- 0.365776 3 1 encap 556 ------- 0 3.3 2.0 -1 94
r 0.365877 3 1 encap 556 ------- 0 3.3 2.0 -1 85
+ 0.365877 1 2 encap 556 ------- 0 3.3 2.0 -1 85
- 0.365877 1 2 encap 556 ------- 0 3.3 2.0 -1 85
r 0.365973 2 1 cbr 536 ------- 2 3.1 1073741824.0 15 57
r 0.365979 1 2 encap 556 ------- 0 3.3 2.0 -1 76
+ 0.365979 2 1 cbr 536 ------- 2 3.1 1073741824.0 21 75
+ 0.367232 2 1 cbr 536 ------- 1 2.1 1073741824.0 39 95
- 0.367408 2 1 cbr 536 ------- 1 2.1 1073741824.0 35 83
r 0.368832 2 1 cbr 536 ------- 1 2.1 1073741824.0 33 77
+ 0.370064 3 1 encap 556 ------- 0 3.3 2.0 -1 97
- 0.370064 3 1 encap 556 ------- 0 3.3 2.0 -1 97
r 0.370165 3 1 encap 556 ------- 0 3.3 2.0 -1 88
+ 0.370165 1 2 encap 556 ------- 0 3.3 2.0 -1 88
- 0.370165 1 2 encap 556 ------- 0 3.3 2.0 -1 88
r 0.370267 1 2 encap 556 ------- 0 3.3 2.0 -1 79
+ 0.370267 2 1 cbr 536 ------- 2 3.1 1073741824.0 22 78
- 0.370267 2 1 cbr 536 ------- 2 3.1 1073741824.0 18 66
+ 0.37152 2 1 cbr 536 ------- 1 2.1 1073741824.0 40 98
r 0.371691 2 1 cbr 536 ------- 2 3.1 1073741824.0 16 60
- 0.373125 2 1 cbr 536 ------- 1 2.1 1073741824.0 36 86
+ 0.374352 3 1 encap 556 ------- 0 3.3 2.0 -1 100
- 0.374352 3 1 encap 556 ------- 0 3.3 2.0 -1 100
r 0.374453 3 1 encap 556 ------- 0 3.3 2.0 -1 91
+ 0.374453 1 2 encap 556 ------- 0 3.3 2.0 -1 91
- 0.374453 1 2 encap 556 ------- 0 3.3 2.0 -1 91
r 0.374549 2 1 cbr 536 ------- 1 2.1 1073741824.0 34 80
r 0.374555 1 2 encap 556 ------- 0 3.3 2.0 -1 82
+ 0.374555 2 1 cbr 536 ------- 2 3.1 1073741824.0 23 81
+ 0.375808 2 1 cbr 536 ------- 1 2.1 1073741824.0 41 101
- 0.375984 2 1 cbr 536 ------- 2 3.1 1073741824.0 19 69
r 0.377408 2 1 cbr 536 ------- 2 3.1 1073741824.0 17 63
+ 0.37864 3 1 encap 556 ------- 0 3.3 2.0 -1 103
- 0.37864 3 1 encap 556 ------- 0 3.3 2.0 -1 103
r 0.378741 3 1 encap 556 ------- 0 3.3 2.0 -1 94
+ 0.378741 1 2 encap 556 ------- 0 3.3 2.0 -1 94
- 0.378741 1 2 encap 556 ------- 0 3.3 2.0 -1 94
r 0.378843 1 2 encap 556 ------- 0 3.3 2.0 -1 85
+ 0.378843 2 1 cbr 536 ------- 2 3.1 1073741824.0 24 84
- 0.378843 2 1 cbr 536 ------- 1 2.1 1073741824.0 37 89
+ 0.380096 2 1 cbr 536 ------- 1 2.1 1073741824.0 42 104
r 0.380267 2 1 cbr 536 ------- 1 2.1 1073741824.0 35 83
- 0.381701 2 1 cbr 536 ------- 2 3.1 1073741824.0 20 72
+ 0.382928 3 1 encap 556 ------- 0 3.3 2.0 -1 106
- 0.382928 3 1 encap 556 ------- 0 3.3 2.0 -1 106
r 0.383029 3 1 encap 556 ------- 0 3.3 2.0 -1 97
+ 0.383029 1 2 encap 556 ------- 0 3.3 2.0 -1 97
- 0.383029 1 2 encap 556 ------- 0 3.3 2.0 -1 97
r 0.383125 2 1 cbr 536 ------- 2 3.1 1073741824.0 18 66
r 0.383131 1 2 encap 556 ------- 0 3.3 2.0 -1 88
+ 0.383131 2 1 cbr 536 ------- 2 3.1 1073741824.0 25 87
+ 0.384384 2 1 cbr 536 ------- 1 2.1 1073741824.0 43 107
- 0.38456 2 1 cbr 536 ------- 1 2.1 1073741824.0 38 92
r 0.385984 2 1 cbr 536 ------- 1 2.1 1073741824.0 36 86
+ 0.387216 3 1 encap 556 ------- 0 3.3 2.0 -1 109
- 0.387216 3 1 encap 556 ------- 0 3.3 2.0 -1 109
r 0.387317 3 1 encap 556 ------- 0 3.3 2.0 -1 100
+ 0.387317 1 2 encap 556 ------- 0 3.3 2.0 -1 100
- 0.387317 1 2 encap 556 ------- 0 3.3 2.0 -1 100
r 0.387419 1 2 encap 556 ------- 0 3.3 2.0 -1 91
+ 0.387419 2 1 cbr 536 ------- 2 3.1 1073741824.0 26 90
- 0.387419 2 1 cbr 536 ------- 2 3.1 1073741824.0 21 75
+ 0.388672 2 1 cbr 536 ------- 1 2.1 1073741824.0 44 110
r 0.388843 2 1 cbr 536 ------- 2 3.1 1073741824.0 19 69
- 0.390277 2 1 cbr 536 ------- 1 2.1 1073741824.0 39 95
+ 0.391504 3 1 encap 556 ------- 0 3.3 2.0 -1 112
- 0.391504 3 1 encap 556 ------- 0 3.3 2.0 -1 112
r 0.391605 3 1 encap 556 ------- 0 3.3 2.0 -1 103
+ 0.391605 1 2 encap 556 ------- 0 3.3 2.0 -1 103
- 0.391605 1 2 encap 556 ------- 0 3.3 2.0 -1 103
r 0.391701 2 1 cbr 536 ------- 1 2.1 1073741824.0 37 89
r 0.391707 1 2 encap 556 ------- 0 3.3 2.0 -1 94
+ 0.391707 2 1 cbr 536 ------- 2 3.1 1073741824.0 27 93
+ 0.39296 2 1 cbr 536 ------- 1 2.1 1073741824.0 45 113
- 0.393136 2 1 cbr 536 ------- 2 3.1 1073741824.0 22 78
r 0.39456 2 1 cbr 536 ------- 2 3.1 1073741824.0 20 72
+ 0.395792 3 1 encap 556 ------- 0 3.3 2.0 -1 115
- 0.395792 3 1 encap 556 ------- 0 3.3 2.0 -1 115
r 0.395893 3 1 encap 556 ------- 0 3.3 2.0 -1 106
+ 0.395893 1 2 encap 556 ------- 0 3.3 2.0 -1 106
- 0.395893 1 2 encap 556 ------- 0 3.3 2.0 -1 106
r 0.395995 1 2 encap 556 ------- 0 3.3 2.0 -1 97
+ 0.395995 2 1 cbr 536 ------- 2 3.1 1073741824.0 28 96
- 0.395995 2 1 cbr 536 ------- 1 2.1 1073741824.0 40 98
+ 0.397248 2 1 cbr 536 ------- 1 2.1 1073741824.0 46 116
r 0.397419 2 1 cbr 536 ------- 1 2.1 1073741824.0 38 92
- 0.398853 2 1 cbr 536 ------- 2 3.1 1073741824.0 23 81
v 0.4 eval {set sim_annotation {0.40000000000000002 0 join-group 1073741824}}
+ 0.40008 3 1 encap 556 ------- 0 3.3 2.0 -1 118
- 0.40008 3 1 encap 556 ------- 0 3.3 2.0 -1 118
r 0.400181 3 1 encap 556 ------- 0 3.3 2.0 -1 109
+ 0.400181 1 2 encap 556 ------- 0 3.3 2.0 -1 109
- 0.400181 1 2 encap 556 ------- 0 3.3 2.0 -1 109
r 0.400277 2 1 cbr 536 ------- 2 3.1 1073741824.0 21 75
+ 0.400277 1 0 cbr 536 ------- 2 3.1 1073741824.0 21 75
- 0.400277 1 0 cbr 536 ------- 2 3.1 1073741824.0 21 75
r 0.400283 1 2 encap 556 ------- 0 3.3 2.0 -1 100
+ 0.400283 2 1 cbr 536 ------- 2 3.1 1073741824.0 29 99
+ 0.401536 2 1 cbr 536 ------- 1 2.1 1073741824.0 47 119
- 0.401712 2 1 cbr 536 ------- 1 2.1 1073741824.0 41 101
r 0.403136 2 1 cbr 536 ------- 1 2.1 1073741824.0 39 95
+ 0.403136 1 0 cbr 536 ------- 1 2.1 1073741824.0 39 95
- 0.403136 1 0 cbr 536 ------- 1 2.1 1073741824.0 39 95
+ 0.404368 3 1 encap 556 ------- 0 3.3 2.0 -1 121
- 0.404368 3 1 encap 556 ------- 0 3.3 2.0 -1 121
r 0.404469 3 1 encap 556 ------- 0 3.3 2.0 -1 112
+ 0.404469 1 2 encap 556 ------- 0 3.3 2.0 -1 112
- 0.404469 1 2 encap 556 ------- 0 3.3 2.0 -1 112
r 0.404571 1 2 encap 556 ------- 0 3.3 2.0 -1 103
+ 0.404571 2 1 cbr 536 ------- 2 3.1 1073741824.0 30 102
- 0.404571 2 1 cbr 536 ------- 2 3.1 1073741824.0 24 84
+ 0.405824 2 1 cbr 536 ------- 1 2.1 1073741824.0 48 122
r 0.405995 2 1 cbr 536 ------- 2 3.1 1073741824.0 22 78
+ 0.405995 1 0 cbr 536 ------- 2 3.1 1073741824.0 22 78
- 0.405995 1 0 cbr 536 ------- 2 3.1 1073741824.0 22 78
- 0.407429 2 1 cbr 536 ------- 1 2.1 1073741824.0 42 104
+ 0.408656 3 1 encap 556 ------- 0 3.3 2.0 -1 124
- 0.408656 3 1 encap 556 ------- 0 3.3 2.0 -1 124
r 0.408757 3 1 encap 556 ------- 0 3.3 2.0 -1 115
+ 0.408757 1 2 encap 556 ------- 0 3.3 2.0 -1 115
- 0.408757 1 2 encap 556 ------- 0 3.3 2.0 -1 115
r 0.408853 2 1 cbr 536 ------- 1 2.1 1073741824.0 40 98
+ 0.408853 1 0 cbr 536 ------- 1 2.1 1073741824.0 40 98
- 0.408853 1 0 cbr 536 ------- 1 2.1 1073741824.0 40 98
r 0.408859 1 2 encap 556 ------- 0 3.3 2.0 -1 106
+ 0.408859 2 1 cbr 536 ------- 2 3.1 1073741824.0 31 105
+ 0.410112 2 1 cbr 536 ------- 1 2.1 1073741824.0 49 125
- 0.410288 2 1 cbr 536 ------- 2 3.1 1073741824.0 25 87
r 0.411712 2 1 cbr 536 ------- 2 3.1 1073741824.0 23 81
+ 0.411712 1 0 cbr 536 ------- 2 3.1 1073741824.0 23 81
- 0.411712 1 0 cbr 536 ------- 2 3.1 1073741824.0 23 81
+ 0.412944 3 1 encap 556 ------- 0 3.3 2.0 -1 127
- 0.412944 3 1 encap 556 ------- 0 3.3 2.0 -1 127
r 0.413045 3 1 encap 556 ------- 0 3.3 2.0 -1 118
+ 0.413045 1 2 encap 556 ------- 0 3.3 2.0 -1 118
- 0.413045 1 2 encap 556 ------- 0 3.3 2.0 -1 118
r 0.413136 1 0 cbr 536 ------- 2 3.1 1073741824.0 21 75
r 0.413147 1 2 encap 556 ------- 0 3.3 2.0 -1 109
+ 0.413147 2 1 cbr 536 ------- 2 3.1 1073741824.0 32 108
- 0.413147 2 1 cbr 536 ------- 1 2.1 1073741824.0 43 107
+ 0.4144 2 1 cbr 536 ------- 1 2.1 1073741824.0 50 128
r 0.414571 2 1 cbr 536 ------- 1 2.1 1073741824.0 41 101
+ 0.414571 1 0 cbr 536 ------- 1 2.1 1073741824.0 41 101
- 0.414571 1 0 cbr 536 ------- 1 2.1 1073741824.0 41 101
r 0.415995 1 0 cbr 536 ------- 1 2.1 1073741824.0 39 95
- 0.416005 2 1 cbr 536 ------- 2 3.1 1073741824.0 26 90
+ 0.417232 3 1 encap 556 ------- 0 3.3 2.0 -1 130
- 0.417232 3 1 encap 556 ------- 0 3.3 2.0 -1 130
r 0.417333 3 1 encap 556 ------- 0 3.3 2.0 -1 121
+ 0.417333 1 2 encap 556 ------- 0 3.3 2.0 -1 121
- 0.417333 1 2 encap 556 ------- 0 3.3 2.0 -1 121
r 0.417429 2 1 cbr 536 ------- 2 3.1 1073741824.0 24 84
+ 0.417429 1 0 cbr 536 ------- 2 3.1 1073741824.0 24 84
- 0.417429 1 0 cbr 536 ------- 2 3.1 1073741824.0 24 84
r 0.417435 1 2 encap 556 ------- 0 3.3 2.0 -1 112
+ 0.417435 2 1 cbr 536 ------- 2 3.1 1073741824.0 33 111
+ 0.418688 2 1 cbr 536 ------- 1 2.1 1073741824.0 51 131
r 0.418853 1 0 cbr 536 ------- 2 3.1 1073741824.0 22 78
- 0.418864 2 1 cbr 536 ------- 1 2.1 1073741824.0 44 110
r 0.420288 2 1 cbr 536 ------- 1 2.1 1073741824.0 42 104
+ 0.420288 1 0 cbr 536 ------- 1 2.1 1073741824.0 42 104
- 0.420288 1 0 cbr 536 ------- 1 2.1 1073741824.0 42 104
+ 0.42152 3 1 encap 556 ------- 0 3.3 2.0 -1 133
- 0.42152 3 1 encap 556 ------- 0 3.3 2.0 -1 133
r 0.421621 3 1 encap 556 ------- 0 3.3 2.0 -1 124
+ 0.421621 1 2 encap 556 ------- 0 3.3 2.0 -1 124
- 0.421621 1 2 encap 556 ------- 0 3.3 2.0 -1 124
r 0.421712 1 0 cbr 536 ------- 1 2.1 1073741824.0 40 98
r 0.421723 1 2 encap 556 ------- 0 3.3 2.0 -1 115
+ 0.421723 2 1 cbr 536 ------- 2 3.1 1073741824.0 34 114
- 0.421723 2 1 cbr 536 ------- 2 3.1 1073741824.0 27 93
+ 0.422976 2 1 cbr 536 ------- 1 2.1 1073741824.0 52 134
r 0.423147 2 1 cbr 536 ------- 2 3.1 1073741824.0 25 87
+ 0.423147 1 0 cbr 536 ------- 2 3.1 1073741824.0 25 87
- 0.423147 1 0 cbr 536 ------- 2 3.1 1073741824.0 25 87
r 0.424571 1 0 cbr 536 ------- 2 3.1 1073741824.0 23 81
- 0.424581 2 1 cbr 536 ------- 1 2.1 1073741824.0 45 113
+ 0.425808 3 1 encap 556 ------- 0 3.3 2.0 -1 136
- 0.425808 3 1 encap 556 ------- 0 3.3 2.0 -1 136
r 0.425909 3 1 encap 556 ------- 0 3.3 2.0 -1 127
+ 0.425909 1 2 encap 556 ------- 0 3.3 2.0 -1 127
- 0.425909 1 2 encap 556 ------- 0 3.3 2.0 -1 127
r 0.426005 2 1 cbr 536 ------- 1 2.1 1073741824.0 43 107
+ 0.426005 1 0 cbr 536 ------- 1 2.1 1073741824.0 43 107
- 0.426005 1 0 cbr 536 ------- 1 2.1 1073741824.0 43 107
r 0.426011 1 2 encap 556 ------- 0 3.3 2.0 -1 118
+ 0.426011 2 1 cbr 536 ------- 2 3.1 1073741824.0 35 117
+ 0.427264 2 1 cbr 536 ------- 1 2.1 1073741824.0 53 137
r 0.427429 1 0 cbr 536 ------- 1 2.1 1073741824.0 41 101
- 0.42744 2 1 cbr 536 ------- 2 3.1 1073741824.0 28 96
r 0.428864 2 1 cbr 536 ------- 2 3.1 1073741824.0 26 90
+ 0.428864 1 0 cbr 536 ------- 2 3.1 1073741824.0 26 90
- 0.428864 1 0 cbr 536 ------- 2 3.1 1073741824.0 26 90
+ 0.430096 3 1 encap 556 ------- 0 3.3 2.0 -1 139
- 0.430096 3 1 encap 556 ------- 0 3.3 2.0 -1 139
r 0.430197 3 1 encap 556 ------- 0 3.3 2.0 -1 130
+ 0.430197 1 2 encap 556 ------- 0 3.3 2.0 -1 130
- 0.430197 1 2 encap 556 ------- 0 3.3 2.0 -1 130
r 0.430288 1 0 cbr 536 ------- 2 3.1 1073741824.0 24 84
r 0.430299 1 2 encap 556 ------- 0 3.3 2.0 -1 121
+ 0.430299 2 1 cbr 536 ------- 2 3.1 1073741824.0 36 120
- 0.430299 2 1 cbr 536 ------- 1 2.1 1073741824.0 46 116
+ 0.431552 2 1 cbr 536 ------- 1 2.1 1073741824.0 54 140
r 0.431723 2 1 cbr 536 ------- 1 2.1 1073741824.0 44 110
+ 0.431723 1 0 cbr 536 ------- 1 2.1 1073741824.0 44 110
- 0.431723 1 0 cbr 536 ------- 1 2.1 1073741824.0 44 110
r 0.433147 1 0 cbr 536 ------- 1 2.1 1073741824.0 42 104
- 0.433157 2 1 cbr 536 ------- 2 3.1 1073741824.0 29 99
+ 0.434384 3 1 encap 556 ------- 0 3.3 2.0 -1 142
- 0.434384 3 1 encap 556 ------- 0 3.3 2.0 -1 142
r 0.434485 3 1 encap 556 ------- 0 3.3 2.0 -1 133
+ 0.434485 1 2 encap 556 ------- 0 3.3 2.0 -1 133
- 0.434485 1 2 encap 556 ------- 0 3.3 2.0 -1 133
r 0.434581 2 1 cbr 536 ------- 2 3.1 1073741824.0 27 93
+ 0.434581 1 0 cbr 536 ------- 2 3.1 1073741824.0 27 93
- 0.434581 1 0 cbr 536 ------- 2 3.1 1073741824.0 27 93
r 0.434587 1 2 encap 556 ------- 0 3.3 2.0 -1 124
+ 0.434587 2 1 cbr 536 ------- 2 3.1 1073741824.0 37 123
+ 0.43584 2 1 cbr 536 ------- 1 2.1 1073741824.0 55 143
r 0.436005 1 0 cbr 536 ------- 2 3.1 1073741824.0 25 87
- 0.436016 2 1 cbr 536 ------- 1 2.1 1073741824.0 47 119
r 0.43744 2 1 cbr 536 ------- 1 2.1 1073741824.0 45 113
+ 0.43744 1 0 cbr 536 ------- 1 2.1 1073741824.0 45 113
- 0.43744 1 0 cbr 536 ------- 1 2.1 1073741824.0 45 113
+ 0.438672 3 1 encap 556 ------- 0 3.3 2.0 -1 145
- 0.438672 3 1 encap 556 ------- 0 3.3 2.0 -1 145
r 0.438773 3 1 encap 556 ------- 0 3.3 2.0 -1 136
+ 0.438773 1 2 encap 556 ------- 0 3.3 2.0 -1 136
- 0.438773 1 2 encap 556 ------- 0 3.3 2.0 -1 136
r 0.438864 1 0 cbr 536 ------- 1 2.1 1073741824.0 43 107
r 0.438875 1 2 encap 556 ------- 0 3.3 2.0 -1 127
+ 0.438875 2 1 cbr 536 ------- 2 3.1 1073741824.0 38 126
- 0.438875 2 1 cbr 536 ------- 2 3.1 1073741824.0 30 102
+ 0.440128 2 1 cbr 536 ------- 1 2.1 1073741824.0 56 146
r 0.440299 2 1 cbr 536 ------- 2 3.1 1073741824.0 28 96
+ 0.440299 1 0 cbr 536 ------- 2 3.1 1073741824.0 28 96
- 0.440299 1 0 cbr 536 ------- 2 3.1 1073741824.0 28 96
r 0.441723 1 0 cbr 536 ------- 2 3.1 1073741824.0 26 90
- 0.441733 2 1 cbr 536 ------- 1 2.1 1073741824.0 48 122
+ 0.44296 3 1 encap 556 ------- 0 3.3 2.0 -1 148
- 0.44296 3 1 encap 556 ------- 0 3.3 2.0 -1 148
r 0.443061 3 1 encap 556 ------- 0 3.3 2.0 -1 139
+ 0.443061 1 2 encap 556 ------- 0 3.3 2.0 -1 139
- 0.443061 1 2 encap 556 ------- 0 3.3 2.0 -1 139
r 0.443157 2 1 cbr 536 ------- 1 2.1 1073741824.0 46 116
+ 0.443157 1 0 cbr 536 ------- 1 2.1 1073741824.0 46 116
- 0.443157 1 0 cbr 536 ------- 1 2.1 1073741824.0 46 116
r 0.443163 1 2 encap 556 ------- 0 3.3 2.0 -1 130
+ 0.443163 2 1 cbr 536 ------- 2 3.1 1073741824.0 39 129
+ 0.444416 2 1 cbr 536 ------- 1 2.1 1073741824.0 57 149
r 0.444581 1 0 cbr 536 ------- 1 2.1 1073741824.0 44 110
- 0.444592 2 1 cbr 536 ------- 2 3.1 1073741824.0 31 105
r 0.446016 2 1 cbr 536 ------- 2 3.1 1073741824.0 29 99
+ 0.446016 1 0 cbr 536 ------- 2 3.1 1073741824.0 29 99
- 0.446016 1 0 cbr 536 ------- 2 3.1 1073741824.0 29 99
+ 0.447248 3 1 encap 556 ------- 0 3.3 2.0 -1 151
- 0.447248 3 1 encap 556 ------- 0 3.3 2.0 -1 151
r 0.447349 3 1 encap 556 ------- 0 3.3 2.0 -1 142
+ 0.447349 1 2 encap 556 ------- 0 3.3 2.0 -1 142
- 0.447349 1 2 encap 556 ------- 0 3.3 2.0 -1 142
r 0.44744 1 0 cbr 536 ------- 2 3.1 1073741824.0 27 93
r 0.447451 1 2 encap 556 ------- 0 3.3 2.0 -1 133
+ 0.447451 2 1 cbr 536 ------- 2 3.1 1073741824.0 40 132
- 0.447451 2 1 cbr 536 ------- 1 2.1 1073741824.0 49 125
+ 0.448704 2 1 cbr 536 ------- 1 2.1 1073741824.0 58 152
r 0.448875 2 1 cbr 536 ------- 1 2.1 1073741824.0 47 119
+ 0.448875 1 0 cbr 536 ------- 1 2.1 1073741824.0 47 119
- 0.448875 1 0 cbr 536 ------- 1 2.1 1073741824.0 47 119
v 0.45 eval {set sim_annotation {1073741824 switch tree type}}
r 0.450299 1 0 cbr 536 ------- 1 2.1 1073741824.0 45 113
- 0.450309 2 1 cbr 536 ------- 2 3.1 1073741824.0 32 108
+ 0.451536 3 1 cbr 536 ------- 2 3.1 1073741824.0 47 153
- 0.451536 3 1 cbr 536 ------- 2 3.1 1073741824.0 47 153
r 0.451637 3 1 encap 556 ------- 0 3.3 2.0 -1 145
+ 0.451637 1 2 encap 556 ------- 0 3.3 2.0 -1 145
- 0.451637 1 2 encap 556 ------- 0 3.3 2.0 -1 145
r 0.451733 2 1 cbr 536 ------- 2 3.1 1073741824.0 30 102
r 0.451739 1 2 encap 556 ------- 0 3.3 2.0 -1 136
+ 0.452992 2 1 cbr 536 ------- 1 2.1 1073741824.0 59 154
r 0.453157 1 0 cbr 536 ------- 2 3.1 1073741824.0 28 96
- 0.453168 2 1 cbr 536 ------- 1 2.1 1073741824.0 50 128
r 0.454592 2 1 cbr 536 ------- 1 2.1 1073741824.0 48 122
+ 0.454592 1 0 cbr 536 ------- 1 2.1 1073741824.0 48 122
- 0.454592 1 0 cbr 536 ------- 1 2.1 1073741824.0 48 122
+ 0.455824 3 1 cbr 536 ------- 2 3.1 1073741824.0 48 155
- 0.455824 3 1 cbr 536 ------- 2 3.1 1073741824.0 48 155
r 0.455925 3 1 encap 556 ------- 0 3.3 2.0 -1 148
+ 0.455925 1 2 encap 556 ------- 0 3.3 2.0 -1 148
- 0.455925 1 2 encap 556 ------- 0 3.3 2.0 -1 148
r 0.456016 1 0 cbr 536 ------- 1 2.1 1073741824.0 46 116
r 0.456027 1 2 encap 556 ------- 0 3.3 2.0 -1 139
- 0.456027 2 1 cbr 536 ------- 2 3.1 1073741824.0 33 111
+ 0.45728 2 1 cbr 536 ------- 1 2.1 1073741824.0 60 156
r 0.457451 2 1 cbr 536 ------- 2 3.1 1073741824.0 31 105
r 0.458875 1 0 cbr 536 ------- 2 3.1 1073741824.0 29 99
- 0.458885 2 1 cbr 536 ------- 1 2.1 1073741824.0 51 131
+ 0.460112 3 1 cbr 536 ------- 2 3.1 1073741824.0 49 157
- 0.460112 3 1 cbr 536 ------- 2 3.1 1073741824.0 49 157
r 0.460213 3 1 encap 556 ------- 0 3.3 2.0 -1 151
+ 0.460213 1 2 encap 556 ------- 0 3.3 2.0 -1 151
- 0.460213 1 2 encap 556 ------- 0 3.3 2.0 -1 151
r 0.460309 2 1 cbr 536 ------- 1 2.1 1073741824.0 49 125
+ 0.460309 1 0 cbr 536 ------- 1 2.1 1073741824.0 49 125
- 0.460309 1 0 cbr 536 ------- 1 2.1 1073741824.0 49 125
r 0.460315 1 2 encap 556 ------- 0 3.3 2.0 -1 142
+ 0.461568 2 1 cbr 536 ------- 1 2.1 1073741824.0 61 158
r 0.461733 1 0 cbr 536 ------- 1 2.1 1073741824.0 47 119
- 0.461744 2 1 cbr 536 ------- 2 3.1 1073741824.0 34 114
r 0.463168 2 1 cbr 536 ------- 2 3.1 1073741824.0 32 108
r 0.464395 3 1 cbr 536 ------- 2 3.1 1073741824.0 47 153
+ 0.464395 1 0 cbr 536 ------- 2 3.1 1073741824.0 47 153
- 0.464395 1 0 cbr 536 ------- 2 3.1 1073741824.0 47 153
+ 0.4644 3 1 cbr 536 ------- 2 3.1 1073741824.0 50 159
- 0.4644 3 1 cbr 536 ------- 2 3.1 1073741824.0 50 159
r 0.464603 1 2 encap 556 ------- 0 3.3 2.0 -1 145
- 0.464603 2 1 cbr 536 ------- 1 2.1 1073741824.0 52 134
+ 0.465856 2 1 cbr 536 ------- 1 2.1 1073741824.0 62 160
r 0.466027 2 1 cbr 536 ------- 1 2.1 1073741824.0 50 128
+ 0.466027 1 0 cbr 536 ------- 1 2.1 1073741824.0 50 128
- 0.467253 1 0 cbr 536 ------- 1 2.1 1073741824.0 50 128
r 0.467451 1 0 cbr 536 ------- 1 2.1 1073741824.0 48 122
- 0.467461 2 1 cbr 536 ------- 2 3.1 1073741824.0 35 117
r 0.468683 3 1 cbr 536 ------- 2 3.1 1073741824.0 48 155
+ 0.468683 1 0 cbr 536 ------- 2 3.1 1073741824.0 48 155
+ 0.468688 3 1 cbr 536 ------- 2 3.1 1073741824.0 51 161
- 0.468688 3 1 cbr 536 ------- 2 3.1 1073741824.0 51 161
r 0.468885 2 1 cbr 536 ------- 2 3.1 1073741824.0 33 111
r 0.468891 1 2 encap 556 ------- 0 3.3 2.0 -1 148
- 0.470112 1 0 cbr 536 ------- 2 3.1 1073741824.0 48 155
+ 0.470144 2 1 cbr 536 ------- 1 2.1 1073741824.0 63 162
- 0.47032 2 1 cbr 536 ------- 1 2.1 1073741824.0 53 137
r 0.471744 2 1 cbr 536 ------- 1 2.1 1073741824.0 51 131
+ 0.471744 1 0 cbr 536 ------- 1 2.1 1073741824.0 51 131
r 0.472971 3 1 cbr 536 ------- 2 3.1 1073741824.0 49 157
+ 0.472971 1 0 cbr 536 ------- 2 3.1 1073741824.0 49 157
- 0.472971 1 0 cbr 536 ------- 1 2.1 1073741824.0 51 131
+ 0.472976 3 1 cbr 536 ------- 2 3.1 1073741824.0 52 163
- 0.472976 3 1 cbr 536 ------- 2 3.1 1073741824.0 52 163
r 0.473168 1 0 cbr 536 ------- 1 2.1 1073741824.0 49 125
r 0.473179 1 2 encap 556 ------- 0 3.3 2.0 -1 151
- 0.473179 2 1 cbr 536 ------- 2 3.1 1073741824.0 36 120
+ 0.474432 2 1 cbr 536 ------- 1 2.1 1073741824.0 64 164
r 0.474603 2 1 cbr 536 ------- 2 3.1 1073741824.0 34 114
- 0.475829 1 0 cbr 536 ------- 2 3.1 1073741824.0 49 157
- 0.476037 2 1 cbr 536 ------- 1 2.1 1073741824.0 54 140
r 0.477253 1 0 cbr 536 ------- 2 3.1 1073741824.0 47 153
r 0.477259 3 1 cbr 536 ------- 2 3.1 1073741824.0 50 159