+ 1 1 0 cbr 536 ------- 0 1.1 1073741824.0 0 0
- 1 1 0 cbr 536 ------- 0 1.1 1073741824.0 0 0
+ 1 1 2 cbr 536 ------- 0 1.1 1073741824.0 0 0
- 1 1 2 cbr 536 ------- 0 1.1 1073741824.0 0 0
+ 1 1 3 cbr 536 ------- 0 1.1 1073741824.0 0 0
- 1 1 3 cbr 536 ------- 0 1.1 1073741824.0 0 0
+ 1.004288 1 0 cbr 536 ------- 0 1.1 1073741824.0 1 1
- 1.004288 1 0 cbr 536 ------- 0 1.1 1073741824.0 1 1
+ 1.004288 1 2 cbr 536 ------- 0 1.1 1073741824.0 1 1
- 1.004288 1 2 cbr 536 ------- 0 1.1 1073741824.0 1 1
+ 1.004288 1 3 cbr 536 ------- 0 1.1 1073741824.0 1 1
- 1.004288 1 3 cbr 536 ------- 0 1.1 1073741824.0 1 1
+ 1.008576 1 0 cbr 536 ------- 0 1.1 1073741824.0 2 2
- 1.008576 1 0 cbr 536 ------- 0 1.1 1073741824.0 2 2
+ 1.008576 1 2 cbr 536 ------- 0 1.1 1073741824.0 2 2
- 1.008576 1 2 cbr 536 ------- 0 1.1 1073741824.0 2 2
+ 1.008576 1 3 cbr 536 ------- 0 1.1 1073741824.0 2 2
- 1.008576 1 3 cbr 536 ------- 0 1.1 1073741824.0 2 2
r 1.012859 1 0 cbr 536 ------- 0 1.1 1073741824.0 0 0
+ 1.012859 0 1 prune 80 ------- 30 0.0 1.0 -1 3
- 1.012859 0 1 prune 80 ------- 30 0.0 1.0 -1 3
r 1.012859 1 2 cbr 536 ------- 0 1.1 1073741824.0 0 0
+ 1.012859 2 1 prune 80 ------- 30 2.0 1.0 -1 4
- 1.012859 2 1 prune 80 ------- 30 2.0 1.0 -1 4
r 1.012859 1 3 cbr 536 ------- 0 1.1 1073741824.0 0 0
+ 1.012859 3 1 prune 80 ------- 30 3.0 1.0 -1 5
- 1.012859 3 1 prune 80 ------- 30 3.0 1.0 -1 5
+ 1.012864 1 0 cbr 536 ------- 0 1.1 1073741824.0 3 6
- 1.012864 1 0 cbr 536 ------- 0 1.1 1073741824.0 3 6
+ 1.012864 1 2 cbr 536 ------- 0 1.1 1073741824.0 3 6
- 1.012864 1 2 cbr 536 ------- 0 1.1 1073741824.0 3 6
+ 1.012864 1 3 cbr 536 ------- 0 1.1 1073741824.0 3 6
- 1.012864 1 3 cbr 536 ------- 0 1.1 1073741824.0 3 6
r 1.017147 1 0 cbr 536 ------- 0 1.1 1073741824.0 1 1
+ 1.017147 0 1 prune 80 ------- 30 0.0 1.0 -1 7
- 1.017147 0 1 prune 80 ------- 30 0.0 1.0 -1 7
r 1.017147 1 2 cbr 536 ------- 0 1.1 1073741824.0 1 1
+ 1.017147 2 1 prune 80 ------- 30 2.0 1.0 -1 8
- 1.017147 2 1 prune 80 ------- 30 2.0 1.0 -1 8
r 1.017147 1 3 cbr 536 ------- 0 1.1 1073741824.0 1 1
+ 1.017147 3 1 prune 80 ------- 30 3.0 1.0 -1 9
- 1.017147 3 1 prune 80 ------- 30 3.0 1.0 -1 9
+ 1.017152 1 0 cbr 536 ------- 0 1.1 1073741824.0 4 10
- 1.017152 1 0 cbr 536 ------- 0 1.1 1073741824.0 4 10
+ 1.017152 1 2 cbr 536 ------- 0 1.1 1073741824.0 4 10
- 1.017152 1 2 cbr 536 ------- 0 1.1 1073741824.0 4 10
+ 1.017152 1 3 cbr 536 ------- 0 1.1 1073741824.0 4 10
- 1.017152 1 3 cbr 536 ------- 0 1.1 1073741824.0 4 10
r 1.021435 1 0 cbr 536 ------- 0 1.1 1073741824.0 2 2
+ 1.021435 0 1 prune 80 ------- 30 0.0 1.0 -1 11
- 1.021435 0 1 prune 80 ------- 30 0.0 1.0 -1 11
r 1.021435 1 2 cbr 536 ------- 0 1.1 1073741824.0 2 2
+ 1.021435 2 1 prune 80 ------- 30 2.0 1.0 -1 12
- 1.021435 2 1 prune 80 ------- 30 2.0 1.0 -1 12
r 1.021435 1 3 cbr 536 ------- 0 1.1 1073741824.0 2 2
+ 1.021435 3 1 prune 80 ------- 30 3.0 1.0 -1 13
- 1.021435 3 1 prune 80 ------- 30 3.0 1.0 -1 13
+ 1.02144 1 0 cbr 536 ------- 0 1.1 1073741824.0 5 14
- 1.02144 1 0 cbr 536 ------- 0 1.1 1073741824.0 5 14
+ 1.02144 1 2 cbr 536 ------- 0 1.1 1073741824.0 5 14
- 1.02144 1 2 cbr 536 ------- 0 1.1 1073741824.0 5 14
+ 1.02144 1 3 cbr 536 ------- 0 1.1 1073741824.0 5 14
- 1.02144 1 3 cbr 536 ------- 0 1.1 1073741824.0 5 14
r 1.023285 0 1 prune 80 ------- 30 0.0 1.0 -1 3
r 1.023285 2 1 prune 80 ------- 30 2.0 1.0 -1 4
r 1.023285 3 1 prune 80 ------- 30 3.0 1.0 -1 5
r 1.025723 1 0 cbr 536 ------- 0 1.1 1073741824.0 3 6
+ 1.025723 0 1 prune 80 ------- 30 0.0 1.0 -1 15
- 1.025723 0 1 prune 80 ------- 30 0.0 1.0 -1 15
r 1.025723 1 2 cbr 536 ------- 0 1.1 1073741824.0 3 6
+ 1.025723 2 1 prune 80 ------- 30 2.0 1.0 -1 16
- 1.025723 2 1 prune 80 ------- 30 2.0 1.0 -1 16
r 1.025723 1 3 cbr 536 ------- 0 1.1 1073741824.0 3 6
+ 1.025723 3 1 prune 80 ------- 30 3.0 1.0 -1 17
- 1.025723 3 1 prune 80 ------- 30 3.0 1.0 -1 17
r 1.027573 0 1 prune 80 ------- 30 0.0 1.0 -1 7
r 1.027573 2 1 prune 80 ------- 30 2.0 1.0 -1 8
r 1.027573 3 1 prune 80 ------- 30 3.0 1.0 -1 9
r 1.030011 1 0 cbr 536 ------- 0 1.1 1073741824.0 4 10
+ 1.030011 0 1 prune 80 ------- 30 0.0 1.0 -1 19
- 1.030011 0 1 prune 80 ------- 30 0.0 1.0 -1 19
r 1.030011 1 2 cbr 536 ------- 0 1.1 1073741824.0 4 10
+ 1.030011 2 1 prune 80 ------- 30 2.0 1.0 -1 20
- 1.030011 2 1 prune 80 ------- 30 2.0 1.0 -1 20
r 1.030011 1 3 cbr 536 ------- 0 1.1 1073741824.0 4 10
+ 1.030011 3 1 prune 80 ------- 30 3.0 1.0 -1 21
- 1.030011 3 1 prune 80 ------- 30 3.0 1.0 -1 21
r 1.031861 0 1 prune 80 ------- 30 0.0 1.0 -1 11
r 1.031861 2 1 prune 80 ------- 30 2.0 1.0 -1 12
r 1.031861 3 1 prune 80 ------- 30 3.0 1.0 -1 13
r 1.034299 1 0 cbr 536 ------- 0 1.1 1073741824.0 5 14
+ 1.034299 0 1 prune 80 ------- 30 0.0 1.0 -1 23
- 1.034299 0 1 prune 80 ------- 30 0.0 1.0 -1 23
r 1.034299 1 2 cbr 536 ------- 0 1.1 1073741824.0 5 14
+ 1.034299 2 1 prune 80 ------- 30 2.0 1.0 -1 24
- 1.034299 2 1 prune 80 ------- 30 2.0 1.0 -1 24
r 1.034299 1 3 cbr 536 ------- 0 1.1 1073741824.0 5 14
+ 1.034299 3 1 prune 80 ------- 30 3.0 1.0 -1 25
- 1.034299 3 1 prune 80 ------- 30 3.0 1.0 -1 25
r 1.036149 0 1 prune 80 ------- 30 0.0 1.0 -1 15
r 1.036149 2 1 prune 80 ------- 30 2.0 1.0 -1 16
r 1.036149 3 1 prune 80 ------- 30 3.0 1.0 -1 17
r 1.040437 0 1 prune 80 ------- 30 0.0 1.0 -1 19
r 1.040437 2 1 prune 80 ------- 30 2.0 1.0 -1 20
r 1.040437 3 1 prune 80 ------- 30 3.0 1.0 -1 21
r 1.044725 0 1 prune 80 ------- 30 0.0 1.0 -1 23
r 1.044725 2 1 prune 80 ------- 30 2.0 1.0 -1 24
r 1.044725 3 1 prune 80 ------- 30 3.0 1.0 -1 25
+ 1.1 3 1 cbr 536 ------- 1 3.1 1073741825.0 0 42
- 1.1 3 1 cbr 536 ------- 1 3.1 1073741825.0 0 42
+ 1.104288 3 1 cbr 536 ------- 1 3.1 1073741825.0 1 44
- 1.104288 3 1 cbr 536 ------- 1 3.1 1073741825.0 1 44
+ 1.108576 3 1 cbr 536 ------- 1 3.1 1073741825.0 2 46
- 1.108576 3 1 cbr 536 ------- 1 3.1 1073741825.0 2 46
r 1.112859 3 1 cbr 536 ------- 1 3.1 1073741825.0 0 42
+ 1.112859 1 0 cbr 536 ------- 1 3.1 1073741825.0 0 42
- 1.112859 1 0 cbr 536 ------- 1 3.1 1073741825.0 0 42
+ 1.112859 1 2 cbr 536 ------- 1 3.1 1073741825.0 0 42
- 1.112859 1 2 cbr 536 ------- 1 3.1 1073741825.0 0 42
+ 1.112864 3 1 cbr 536 ------- 1 3.1 1073741825.0 3 48
- 1.112864 3 1 cbr 536 ------- 1 3.1 1073741825.0 3 48
r 1.117147 3 1 cbr 536 ------- 1 3.1 1073741825.0 1 44
+ 1.117147 1 0 cbr 536 ------- 1 3.1 1073741825.0 1 44
- 1.117147 1 0 cbr 536 ------- 1 3.1 1073741825.0 1 44
+ 1.117147 1 2 cbr 536 ------- 1 3.1 1073741825.0 1 44
- 1.117147 1 2 cbr 536 ------- 1 3.1 1073741825.0 1 44
+ 1.117152 3 1 cbr 536 ------- 1 3.1 1073741825.0 4 50
- 1.117152 3 1 cbr 536 ------- 1 3.1 1073741825.0 4 50
r 1.121435 3 1 cbr 536 ------- 1 3.1 1073741825.0 2 46
+ 1.121435 1 0 cbr 536 ------- 1 3.1 1073741825.0 2 46
- 1.121435 1 0 cbr 536 ------- 1 3.1 1073741825.0 2 46
+ 1.121435 1 2 cbr 536 ------- 1 3.1 1073741825.0 2 46
- 1.121435 1 2 cbr 536 ------- 1 3.1 1073741825.0 2 46
+ 1.12144 3 1 cbr 536 ------- 1 3.1 1073741825.0 5 52
- 1.12144 3 1 cbr 536 ------- 1 3.1 1073741825.0 5 52
r 1.125717 1 0 cbr 536 ------- 1 3.1 1073741825.0 0 42
+ 1.125717 0 1 prune 80 ------- 30 0.0 1.0 -1 54
- 1.125717 0 1 prune 80 ------- 30 0.0 1.0 -1 54
r 1.125717 1 2 cbr 536 ------- 1 3.1 1073741825.0 0 42
+ 1.125717 2 1 prune 80 ------- 30 2.0 1.0 -1 55
- 1.125717 2 1 prune 80 ------- 30 2.0 1.0 -1 55
r 1.125723 3 1 cbr 536 ------- 1 3.1 1073741825.0 3 48
+ 1.125723 1 0 cbr 536 ------- 1 3.1 1073741825.0 3 48
- 1.125723 1 0 cbr 536 ------- 1 3.1 1073741825.0 3 48
+ 1.125723 1 2 cbr 536 ------- 1 3.1 1073741825.0 3 48
- 1.125723 1 2 cbr 536 ------- 1 3.1 1073741825.0 3 48
+ 1.125728 3 1 cbr 536 ------- 1 3.1 1073741825.0 6 56
- 1.125728 3 1 cbr 536 ------- 1 3.1 1073741825.0 6 56
r 1.130005 1 0 cbr 536 ------- 1 3.1 1073741825.0 1 44
+ 1.130005 0 1 prune 80 ------- 30 0.0 1.0 -1 58
- 1.130005 0 1 prune 80 ------- 30 0.0 1.0 -1 58
r 1.130005 1 2 cbr 536 ------- 1 3.1 1073741825.0 1 44
+ 1.130005 2 1 prune 80 ------- 30 2.0 1.0 -1 59
- 1.130005 2 1 prune 80 ------- 30 2.0 1.0 -1 59
r 1.130011 3 1 cbr 536 ------- 1 3.1 1073741825.0 4 50
+ 1.130011 1 0 cbr 536 ------- 1 3.1 1073741825.0 4 50
- 1.130011 1 0 cbr 536 ------- 1 3.1 1073741825.0 4 50
+ 1.130011 1 2 cbr 536 ------- 1 3.1 1073741825.0 4 50
- 1.130011 1 2 cbr 536 ------- 1 3.1 1073741825.0 4 50
+ 1.130016 3 1 cbr 536 ------- 1 3.1 1073741825.0 7 60
- 1.130016 3 1 cbr 536 ------- 1 3.1 1073741825.0 7 60
r 1.134293 1 0 cbr 536 ------- 1 3.1 1073741825.0 2 46
+ 1.134293 0 1 prune 80 ------- 30 0.0 1.0 -1 62
- 1.134293 0 1 prune 80 ------- 30 0.0 1.0 -1 62
r 1.134293 1 2 cbr 536 ------- 1 3.1 1073741825.0 2 46
+ 1.134293 2 1 prune 80 ------- 30 2.0 1.0 -1 63
- 1.134293 2 1 prune 80 ------- 30 2.0 1.0 -1 63
r 1.134299 3 1 cbr 536 ------- 1 3.1 1073741825.0 5 52
+ 1.134299 1 0 cbr 536 ------- 1 3.1 1073741825.0 5 52
- 1.134299 1 0 cbr 536 ------- 1 3.1 1073741825.0 5 52
+ 1.134299 1 2 cbr 536 ------- 1 3.1 1073741825.0 5 52
- 1.134299 1 2 cbr 536 ------- 1 3.1 1073741825.0 5 52
+ 1.134304 3 1 cbr 536 ------- 1 3.1 1073741825.0 8 64
- 1.134304 3 1 cbr 536 ------- 1 3.1 1073741825.0 8 64
r 1.136144 0 1 prune 80 ------- 30 0.0 1.0 -1 54
r 1.136144 2 1 prune 80 ------- 30 2.0 1.0 -1 55
+ 1.136144 1 3 prune 80 ------- 30 1.0 3.0 -1 65
- 1.136144 1 3 prune 80 ------- 30 1.0 3.0 -1 65
r 1.138581 1 0 cbr 536 ------- 1 3.1 1073741825.0 3 48
+ 1.138581 0 1 prune 80 ------- 30 0.0 1.0 -1 67
- 1.138581 0 1 prune 80 ------- 30 0.0 1.0 -1 67
r 1.138581 1 2 cbr 536 ------- 1 3.1 1073741825.0 3 48
+ 1.138581 2 1 prune 80 ------- 30 2.0 1.0 -1 68
- 1.138581 2 1 prune 80 ------- 30 2.0 1.0 -1 68
r 1.138587 3 1 cbr 536 ------- 1 3.1 1073741825.0 6 56
+ 1.138587 1 3 prune 80 ------- 30 1.0 3.0 -1 69
- 1.138587 1 3 prune 80 ------- 30 1.0 3.0 -1 69
+ 1.138592 3 1 cbr 536 ------- 1 3.1 1073741825.0 9 70
- 1.138592 3 1 cbr 536 ------- 1 3.1 1073741825.0 9 70
r 1.140432 0 1 prune 80 ------- 30 0.0 1.0 -1 58
r 1.140432 2 1 prune 80 ------- 30 2.0 1.0 -1 59
r 1.142869 1 0 cbr 536 ------- 1 3.1 1073741825.0 4 50
+ 1.142869 0 1 prune 80 ------- 30 0.0 1.0 -1 72
- 1.142869 0 1 prune 80 ------- 30 0.0 1.0 -1 72
r 1.142869 1 2 cbr 536 ------- 1 3.1 1073741825.0 4 50
+ 1.142869 2 1 prune 80 ------- 30 2.0 1.0 -1 73
- 1.142869 2 1 prune 80 ------- 30 2.0 1.0 -1 73
r 1.142875 3 1 cbr 536 ------- 1 3.1 1073741825.0 7 60
+ 1.142875 1 3 prune 80 ------- 30 1.0 3.0 -1 74
- 1.142875 1 3 prune 80 ------- 30 1.0 3.0 -1 74
+ 1.14288 3 1 cbr 536 ------- 1 3.1 1073741825.0 10 75
- 1.14288 3 1 cbr 536 ------- 1 3.1 1073741825.0 10 75
r 1.14472 0 1 prune 80 ------- 30 0.0 1.0 -1 62
r 1.14472 2 1 prune 80 ------- 30 2.0 1.0 -1 63
r 1.146571 1 3 prune 80 ------- 30 1.0 3.0 -1 65
r 1.147157 1 0 cbr 536 ------- 1 3.1 1073741825.0 5 52
+ 1.147157 0 1 prune 80 ------- 30 0.0 1.0 -1 77
- 1.147157 0 1 prune 80 ------- 30 0.0 1.0 -1 77
r 1.147157 1 2 cbr 536 ------- 1 3.1 1073741825.0 5 52
+ 1.147157 2 1 prune 80 ------- 30 2.0 1.0 -1 78
- 1.147157 2 1 prune 80 ------- 30 2.0 1.0 -1 78
r 1.147163 3 1 cbr 536 ------- 1 3.1 1073741825.0 8 64
+ 1.147163 1 3 prune 80 ------- 30 1.0 3.0 -1 79
- 1.147163 1 3 prune 80 ------- 30 1.0 3.0 -1 79
r 1.149008 0 1 prune 80 ------- 30 0.0 1.0 -1 67
r 1.149008 2 1 prune 80 ------- 30 2.0 1.0 -1 68
r 1.149013 1 3 prune 80 ------- 30 1.0 3.0 -1 69
r 1.151451 3 1 cbr 536 ------- 1 3.1 1073741825.0 9 70
+ 1.151451 1 3 prune 80 ------- 30 1.0 3.0 -1 82
- 1.151451 1 3 prune 80 ------- 30 1.0 3.0 -1 82
r 1.153296 0 1 prune 80 ------- 30 0.0 1.0 -1 72
r 1.153296 2 1 prune 80 ------- 30 2.0 1.0 -1 73
r 1.153301 1 3 prune 80 ------- 30 1.0 3.0 -1 74
r 1.155739 3 1 cbr 536 ------- 1 3.1 1073741825.0 10 75
+ 1.155739 1 3 prune 80 ------- 30 1.0 3.0 -1 85
- 1.155739 1 3 prune 80 ------- 30 1.0 3.0 -1 85
r 1.157584 0 1 prune 80 ------- 30 0.0 1.0 -1 77
r 1.157584 2 1 prune 80 ------- 30 2.0 1.0 -1 78
r 1.157589 1 3 prune 80 ------- 30 1.0 3.0 -1 79
r 1.161877 1 3 prune 80 ------- 30 1.0 3.0 -1 82
r 1.166165 1 3 prune 80 ------- 30 1.0 3.0 -1 85
v 1.2 eval {set sim_annotation {1.2 2 join-group 1073741825}}
+ 1.2 2 1 graft 80 ------- 31 2.0 1.0 -1 107
- 1.2 2 1 graft 80 ------- 31 2.0 1.0 -1 107
r 1.210427 2 1 graft 80 ------- 31 2.0 1.0 -1 107
+ 1.210427 1 3 graft 80 ------- 31 1.0 3.0 -1 113
- 1.210427 1 3 graft 80 ------- 31 1.0 3.0 -1 113
r 1.220853 1 3 graft 80 ------- 31 1.0 3.0 -1 113
+ 1.224352 3 1 cbr 536 ------- 1 3.1 1073741825.0 29 120
- 1.224352 3 1 cbr 536 ------- 1 3.1 1073741825.0 29 120
+ 1.22864 3 1 cbr 536 ------- 1 3.1 1073741825.0 30 122
- 1.22864 3 1 cbr 536 ------- 1 3.1 1073741825.0 30 122
+ 1.232928 3 1 cbr 536 ------- 1 3.1 1073741825.0 31 124
- 1.232928 3 1 cbr 536 ------- 1 3.1 1073741825.0 31 124
r 1.237211 3 1 cbr 536 ------- 1 3.1 1073741825.0 29 120
+ 1.237211 1 2 cbr 536 ------- 1 3.1 1073741825.0 29 120
- 1.237211 1 2 cbr 536 ------- 1 3.1 1073741825.0 29 120
+ 1.237216 3 1 cbr 536 ------- 1 3.1 1073741825.0 32 126
- 1.237216 3 1 cbr 536 ------- 1 3.1 1073741825.0 32 126
r 1.241499 3 1 cbr 536 ------- 1 3.1 1073741825.0 30 122
+ 1.241499 1 2 cbr 536 ------- 1 3.1 1073741825.0 30 122
- 1.241499 1 2 cbr 536 ------- 1 3.1 1073741825.0 30 122
+ 1.241504 3 1 cbr 536 ------- 1 3.1 1073741825.0 33 128
- 1.241504 3 1 cbr 536 ------- 1 3.1 1073741825.0 33 128
r 1.245787 3 1 cbr 536 ------- 1 3.1 1073741825.0 31 124
+ 1.245787 1 2 cbr 536 ------- 1 3.1 1073741825.0 31 124
- 1.245787 1 2 cbr 536 ------- 1 3.1 1073741825.0 31 124
+ 1.245792 3 1 cbr 536 ------- 1 3.1 1073741825.0 34 130
- 1.245792 3 1 cbr 536 ------- 1 3.1 1073741825.0 34 130
v 1.25 eval {set sim_annotation {1.25 2 leave-group 1073741825}}
r 1.250069 1 2 cbr 536 ------- 1 3.1 1073741825.0 29 120
+ 1.250069 2 1 prune 80 ------- 30 2.0 1.0 -1 132
- 1.250069 2 1 prune 80 ------- 30 2.0 1.0 -1 132
r 1.250075 3 1 cbr 536 ------- 1 3.1 1073741825.0 32 126
+ 1.250075 1 2 cbr 536 ------- 1 3.1 1073741825.0 32 126
- 1.250075 1 2 cbr 536 ------- 1 3.1 1073741825.0 32 126
+ 1.25008 3 1 cbr 536 ------- 1 3.1 1073741825.0 35 133
- 1.25008 3 1 cbr 536 ------- 1 3.1 1073741825.0 35 133
r 1.254357 1 2 cbr 536 ------- 1 3.1 1073741825.0 30 122
+ 1.254357 2 1 prune 80 ------- 30 2.0 1.0 -1 135
- 1.254357 2 1 prune 80 ------- 30 2.0 1.0 -1 135
r 1.254363 3 1 cbr 536 ------- 1 3.1 1073741825.0 33 128
+ 1.254363 1 2 cbr 536 ------- 1 3.1 1073741825.0 33 128
- 1.254363 1 2 cbr 536 ------- 1 3.1 1073741825.0 33 128
+ 1.254368 3 1 cbr 536 ------- 1 3.1 1073741825.0 36 136
- 1.254368 3 1 cbr 536 ------- 1 3.1 1073741825.0 36 136
r 1.258645 1 2 cbr 536 ------- 1 3.1 1073741825.0 31 124
+ 1.258645 2 1 prune 80 ------- 30 2.0 1.0 -1 138
- 1.258645 2 1 prune 80 ------- 30 2.0 1.0 -1 138
r 1.258651 3 1 cbr 536 ------- 1 3.1 1073741825.0 34 130
+ 1.258651 1 2 cbr 536 ------- 1 3.1 1073741825.0 34 130
- 1.258651 1 2 cbr 536 ------- 1 3.1 1073741825.0 34 130
+ 1.258656 3 1 cbr 536 ------- 1 3.1 1073741825.0 37 139
- 1.258656 3 1 cbr 536 ------- 1 3.1 1073741825.0 37 139
r 1.260496 2 1 prune 80 ------- 30 2.0 1.0 -1 132
+ 1.260496 1 3 prune 80 ------- 30 1.0 3.0 -1 140
- 1.260496 1 3 prune 80 ------- 30 1.0 3.0 -1 140
r 1.262933 1 2 cbr 536 ------- 1 3.1 1073741825.0 32 126
+ 1.262933 2 1 prune 80 ------- 30 2.0 1.0 -1 142
- 1.262933 2 1 prune 80 ------- 30 2.0 1.0 -1 142
r 1.262939 3 1 cbr 536 ------- 1 3.1 1073741825.0 35 133
+ 1.262939 1 3 prune 80 ------- 30 1.0 3.0 -1 143
- 1.262939 1 3 prune 80 ------- 30 1.0 3.0 -1 143
+ 1.262944 3 1 cbr 536 ------- 1 3.1 1073741825.0 38 144
- 1.262944 3 1 cbr 536 ------- 1 3.1 1073741825.0 38 144
r 1.264784 2 1 prune 80 ------- 30 2.0 1.0 -1 135
r 1.267221 1 2 cbr 536 ------- 1 3.1 1073741825.0 33 128
+ 1.267221 2 1 prune 80 ------- 30 2.0 1.0 -1 146
- 1.267221 2 1 prune 80 ------- 30 2.0 1.0 -1 146
r 1.267227 3 1 cbr 536 ------- 1 3.1 1073741825.0 36 136
+ 1.267227 1 3 prune 80 ------- 30 1.0 3.0 -1 147
- 1.267227 1 3 prune 80 ------- 30 1.0 3.0 -1 147
+ 1.267232 3 1 cbr 536 ------- 1 3.1 1073741825.0 39 148
- 1.267232 3 1 cbr 536 ------- 1 3.1 1073741825.0 39 148
r 1.269072 2 1 prune 80 ------- 30 2.0 1.0 -1 138
r 1.270923 1 3 prune 80 ------- 30 1.0 3.0 -1 140
r 1.271509 1 2 cbr 536 ------- 1 3.1 1073741825.0 34 130
+ 1.271509 2 1 prune 80 ------- 30 2.0 1.0 -1 150
- 1.271509 2 1 prune 80 ------- 30 2.0 1.0 -1 150
r 1.271515 3 1 cbr 536 ------- 1 3.1 1073741825.0 37 139
+ 1.271515 1 3 prune 80 ------- 30 1.0 3.0 -1 151
- 1.271515 1 3 prune 80 ------- 30 1.0 3.0 -1 151
r 1.27336 2 1 prune 80 ------- 30 2.0 1.0 -1 142
r 1.273365 1 3 prune 80 ------- 30 1.0 3.0 -1 143
r 1.275803 3 1 cbr 536 ------- 1 3.1 1073741825.0 38 144
+ 1.275803 1 3 prune 80 ------- 30 1.0 3.0 -1 154
- 1.275803 1 3 prune 80 ------- 30 1.0 3.0 -1 154
r 1.277648 2 1 prune 80 ------- 30 2.0 1.0 -1 146
r 1.277653 1 3 prune 80 ------- 30 1.0 3.0 -1 147
r 1.280091 3 1 cbr 536 ------- 1 3.1 1073741825.0 39 148
+ 1.280091 1 3 prune 80 ------- 30 1.0 3.0 -1 157
- 1.280091 1 3 prune 80 ------- 30 1.0 3.0 -1 157
r 1.281936 2 1 prune 80 ------- 30 2.0 1.0 -1 150
r 1.281941 1 3 prune 80 ------- 30 1.0 3.0 -1 151
r 1.286229 1 3 prune 80 ------- 30 1.0 3.0 -1 154
r 1.290517 1 3 prune 80 ------- 30 1.0 3.0 -1 157
v 1.3 eval {set sim_annotation {1.3 2 join-group 1073741825}}
+ 1.3 2 1 graft 80 ------- 31 2.0 1.0 -1 167
- 1.3 2 1 graft 80 ------- 31 2.0 1.0 -1 167
r 1.310427 2 1 graft 80 ------- 31 2.0 1.0 -1 167
+ 1.310427 1 3 graft 80 ------- 31 1.0 3.0 -1 174
- 1.310427 1 3 graft 80 ------- 31 1.0 3.0 -1 174
r 1.320853 1 3 graft 80 ------- 31 1.0 3.0 -1 174
+ 1.322976 3 1 cbr 536 ------- 1 3.1 1073741825.0 52 180
- 1.322976 3 1 cbr 536 ------- 1 3.1 1073741825.0 52 180
+ 1.327264 3 1 cbr 536 ------- 1 3.1 1073741825.0 53 182
- 1.327264 3 1 cbr 536 ------- 1 3.1 1073741825.0 53 182
+ 1.331552 3 1 cbr 536 ------- 1 3.1 1073741825.0 54 184
- 1.331552 3 1 cbr 536 ------- 1 3.1 1073741825.0 54 184
r 1.335835 3 1 cbr 536 ------- 1 3.1 1073741825.0 52 180
+ 1.335835 1 2 cbr 536 ------- 1 3.1 1073741825.0 52 180
- 1.335835 1 2 cbr 536 ------- 1 3.1 1073741825.0 52 180
+ 1.33584 3 1 cbr 536 ------- 1 3.1 1073741825.0 55 186
- 1.33584 3 1 cbr 536 ------- 1 3.1 1073741825.0 55 186
r 1.340123 3 1 cbr 536 ------- 1 3.1 1073741825.0 53 182
+ 1.340123 1 2 cbr 536 ------- 1 3.1 1073741825.0 53 182
- 1.340123 1 2 cbr 536 ------- 1 3.1 1073741825.0 53 182
+ 1.340128 3 1 cbr 536 ------- 1 3.1 1073741825.0 56 188
- 1.340128 3 1 cbr 536 ------- 1 3.1 1073741825.0 56 188
r 1.344411 3 1 cbr 536 ------- 1 3.1 1073741825.0 54 184
+ 1.344411 1 2 cbr 536 ------- 1 3.1 1073741825.0 54 184
- 1.344411 1 2 cbr 536 ------- 1 3.1 1073741825.0 54 184
+ 1.344416 3 1 cbr 536 ------- 1 3.1 1073741825.0 57 190
- 1.344416 3 1 cbr 536 ------- 1 3.1 1073741825.0 57 190
r 1.348693 1 2 cbr 536 ------- 1 3.1 1073741825.0 52 180
r 1.348699 3 1 cbr 536 ------- 1 3.1 1073741825.0 55 186
+ 1.348699 1 2 cbr 536 ------- 1 3.1 1073741825.0 55 186
- 1.348699 1 2 cbr 536 ------- 1 3.1 1073741825.0 55 186
+ 1.348704 3 1 cbr 536 ------- 1 3.1 1073741825.0 58 192
- 1.348704 3 1 cbr 536 ------- 1 3.1 1073741825.0 58 192
v 1.35 eval {set sim_annotation {1.3500000000000001 2 join-group 1073741824}}
+ 1.35 2 1 graft 80 ------- 31 2.0 1.0 -1 193
- 1.35 2 1 graft 80 ------- 31 2.0 1.0 -1 193
r 1.352981 1 2 cbr 536 ------- 1 3.1 1073741825.0 53 182
r 1.352987 3 1 cbr 536 ------- 1 3.1 1073741825.0 56 188
+ 1.352987 1 2 cbr 536 ------- 1 3.1 1073741825.0 56 188
- 1.352987 1 2 cbr 536 ------- 1 3.1 1073741825.0 56 188
+ 1.352992 3 1 cbr 536 ------- 1 3.1 1073741825.0 59 195
- 1.352992 3 1 cbr 536 ------- 1 3.1 1073741825.0 59 195
r 1.357269 1 2 cbr 536 ------- 1 3.1 1073741825.0 54 184
r 1.357275 3 1 cbr 536 ------- 1 3.1 1073741825.0 57 190
+ 1.357275 1 2 cbr 536 ------- 1 3.1 1073741825.0 57 190
- 1.357275 1 2 cbr 536 ------- 1 3.1 1073741825.0 57 190
+ 1.35728 3 1 cbr 536 ------- 1 3.1 1073741825.0 60 197
- 1.35728 3 1 cbr 536 ------- 1 3.1 1073741825.0 60 197
r 1.360427 2 1 graft 80 ------- 31 2.0 1.0 -1 193
r 1.361557 1 2 cbr 536 ------- 1 3.1 1073741825.0 55 186
r 1.361563 3 1 cbr 536 ------- 1 3.1 1073741825.0 58 192
+ 1.361563 1 2 cbr 536 ------- 1 3.1 1073741825.0 58 192
- 1.361563 1 2 cbr 536 ------- 1 3.1 1073741825.0 58 192
+ 1.361568 3 1 cbr 536 ------- 1 3.1 1073741825.0 61 199
- 1.361568 3 1 cbr 536 ------- 1 3.1 1073741825.0 61 199
+ 1.36448 1 2 cbr 536 ------- 0 1.1 1073741824.0 85 200
- 1.36448 1 2 cbr 536 ------- 0 1.1 1073741824.0 85 200
r 1.365845 1 2 cbr 536 ------- 1 3.1 1073741825.0 56 188
r 1.365851 3 1 cbr 536 ------- 1 3.1 1073741825.0 59 195
+ 1.365851 1 2 cbr 536 ------- 1 3.1 1073741825.0 59 195
+ 1.365856 3 1 cbr 536 ------- 1 3.1 1073741825.0 62 201
- 1.365856 3 1 cbr 536 ------- 1 3.1 1073741825.0 62 201
- 1.367339 1 2 cbr 536 ------- 1 3.1 1073741825.0 59 195
+ 1.368768 1 2 cbr 536 ------- 0 1.1 1073741824.0 86 202
r 1.370133 1 2 cbr 536 ------- 1 3.1 1073741825.0 57 190
r 1.370139 3 1 cbr 536 ------- 1 3.1 1073741825.0 60 197
+ 1.370139 1 2 cbr 536 ------- 1 3.1 1073741825.0 60 197
+ 1.370144 3 1 cbr 536 ------- 1 3.1 1073741825.0 63 203
- 1.370144 3 1 cbr 536 ------- 1 3.1 1073741825.0 63 203
- 1.370197 1 2 cbr 536 ------- 0 1.1 1073741824.0 86 202
- 1.373056 1 2 cbr 536 ------- 1 3.1 1073741825.0 60 197
+ 1.373056 1 2 cbr 536 ------- 0 1.1 1073741824.0 87 204
r 1.374421 1 2 cbr 536 ------- 1 3.1 1073741825.0 58 192
r 1.374427 3 1 cbr 536 ------- 1 3.1 1073741825.0 61 199
+ 1.374427 1 2 cbr 536 ------- 1 3.1 1073741825.0 61 199
+ 1.374432 3 1 cbr 536 ------- 1 3.1 1073741825.0 64 205
- 1.374432 3 1 cbr 536 ------- 1 3.1 1073741825.0 64 205
- 1.375915 1 2 cbr 536 ------- 0 1.1 1073741824.0 87 204
r 1.377339 1 2 cbr 536 ------- 0 1.1 1073741824.0 85 200
+ 1.377344 1 2 cbr 536 ------- 0 1.1 1073741824.0 88 206
r 1.378715 3 1 cbr 536 ------- 1 3.1 1073741825.0 62 201
+ 1.378715 1 2 cbr 536 ------- 1 3.1 1073741825.0 62 201
+ 1.37872 3 1 cbr 536 ------- 1 3.1 1073741825.0 65 207
- 1.37872 3 1 cbr 536 ------- 1 3.1 1073741825.0 65 207
- 1.378773 1 2 cbr 536 ------- 1 3.1 1073741825.0 61 199
r 1.380197 1 2 cbr 536 ------- 1 3.1 1073741825.0 59 195
- 1.381632 1 2 cbr 536 ------- 0 1.1 1073741824.0 88 206
+ 1.381632 1 2 cbr 536 ------- 0 1.1 1073741824.0 89 208
r 1.383003 3 1 cbr 536 ------- 1 3.1 1073741825.0 63 203
+ 1.383003 1 2 cbr 536 ------- 1 3.1 1073741825.0 63 203
+ 1.383008 3 1 cbr 536 ------- 1 3.1 1073741825.0 66 209
- 1.383008 3 1 cbr 536 ------- 1 3.1 1073741825.0 66 209
r 1.383056 1 2 cbr 536 ------- 0 1.1 1073741824.0 86 202
- 1.384491 1 2 cbr 536 ------- 1 3.1 1073741825.0 62 201
r 1.385915 1 2 cbr 536 ------- 1 3.1 1073741825.0 60 197
+ 1.38592 1 2 cbr 536 ------- 0 1.1 1073741824.0 90 210
r 1.387291 3 1 cbr 536 ------- 1 3.1 1073741825.0 64 205
+ 1.387291 1 2 cbr 536 ------- 1 3.1 1073741825.0 64 205
+ 1.387296 3 1 cbr 536 ------- 1 3.1 1073741825.0 67 211
- 1.387296 3 1 cbr 536 ------- 1 3.1 1073741825.0 67 211
- 1.387349 1 2 cbr 536 ------- 0 1.1 1073741824.0 89 208
r 1.388773 1 2 cbr 536 ------- 0 1.1 1073741824.0 87 204
- 1.390208 1 2 cbr 536 ------- 1 3.1 1073741825.0 63 203
+ 1.390208 1 2 cbr 536 ------- 0 1.1 1073741824.0 91 212
r 1.391579 3 1 cbr 536 ------- 1 3.1 1073741825.0 65 207
+ 1.391579 1 2 cbr 536 ------- 1 3.1 1073741825.0 65 207
+ 1.391584 3 1 cbr 536 ------- 1 3.1 1073741825.0 68 213
- 1.391584 3 1 cbr 536 ------- 1 3.1 1073741825.0 68 213
r 1.391632 1 2 cbr 536 ------- 1 3.1 1073741825.0 61 199
- 1.393067 1 2 cbr 536 ------- 0 1.1 1073741824.0 90 210
r 1.394491 1 2 cbr 536 ------- 0 1.1 1073741824.0 88 206
+ 1.394496 1 2 cbr 536 ------- 0 1.1 1073741824.0 92 214
r 1.395867 3 1 cbr 536 ------- 1 3.1 1073741825.0 66 209
+ 1.395867 1 2 cbr 536 ------- 1 3.1 1073741825.0 66 209
+ 1.395872 3 1 cbr 536 ------- 1 3.1 1073741825.0 69 215
- 1.395872 3 1 cbr 536 ------- 1 3.1 1073741825.0 69 215
- 1.395925 1 2 cbr 536 ------- 1 3.1 1073741825.0 64 205
r 1.397349 1 2 cbr 536 ------- 1 3.1 1073741825.0 62 201
- 1.398784 1 2 cbr 536 ------- 0 1.1 1073741824.0 91 212
+ 1.398784 1 2 cbr 536 ------- 0 1.1 1073741824.0 93 216
r 1.400155 3 1 cbr 536 ------- 1 3.1 1073741825.0 67 211
+ 1.400155 1 2 cbr 536 ------- 1 3.1 1073741825.0 67 211
+ 1.40016 3 1 cbr 536 ------- 1 3.1 1073741825.0 70 217
- 1.40016 3 1 cbr 536 ------- 1 3.1 1073741825.0 70 217
r 1.400208 1 2 cbr 536 ------- 0 1.1 1073741824.0 89 208
- 1.401643 1 2 cbr 536 ------- 1 3.1 1073741825.0 65 207
r 1.403067 1 2 cbr 536 ------- 1 3.1 1073741825.0 63 203
+ 1.403072 1 2 cbr 536 ------- 0 1.1 1073741824.0 94 218
r 1.404443 3 1 cbr 536 ------- 1 3.1 1073741825.0 68 213
+ 1.404443 1 2 cbr 536 ------- 1 3.1 1073741825.0 68 213
+ 1.404448 3 1 cbr 536 ------- 1 3.1 1073741825.0 71 219
- 1.404448 3 1 cbr 536 ------- 1 3.1 1073741825.0 71 219
- 1.404501 1 2 cbr 536 ------- 0 1.1 1073741824.0 92 214
r 1.405925 1 2 cbr 536 ------- 0 1.1 1073741824.0 90 210
- 1.40736 1 2 cbr 536 ------- 1 3.1 1073741825.0 66 209
+ 1.40736 1 2 cbr 536 ------- 0 1.1 1073741824.0 95 220
r 1.408731 3 1 cbr 536 ------- 1 3.1 1073741825.0 69 215
+ 1.408731 1 2 cbr 536 ------- 1 3.1 1073741825.0 69 215
+ 1.408736 3 1 cbr 536 ------- 1 3.1 1073741825.0 72 221
- 1.408736 3 1 cbr 536 ------- 1 3.1 1073741825.0 72 221
r 1.408784 1 2 cbr 536 ------- 1 3.1 1073741825.0 64 205
- 1.410219 1 2 cbr 536 ------- 0 1.1 1073741824.0 93 216
r 1.411643 1 2 cbr 536 ------- 0 1.1 1073741824.0 91 212
+ 1.411648 1 2 cbr 536 ------- 0 1.1 1073741824.0 96 222
r 1.413019 3 1 cbr 536 ------- 1 3.1 1073741825.0 70 217
+ 1.413019 1 2 cbr 536 ------- 1 3.1 1073741825.0 70 217
+ 1.413024 3 1 cbr 536 ------- 1 3.1 1073741825.0 73 223
- 1.413024 3 1 cbr 536 ------- 1 3.1 1073741825.0 73 223
- 1.413077 1 2 cbr 536 ------- 1 3.1 1073741825.0 67 211
r 1.414501 1 2 cbr 536 ------- 1 3.1 1073741825.0 65 207
- 1.415936 1 2 cbr 536 ------- 0 1.1 1073741824.0 94 218
+ 1.415936 1 2 cbr 536 ------- 0 1.1 1073741824.0 97 224
r 1.417307 3 1 cbr 536 ------- 1 3.1 1073741825.0 71 219
+ 1.417307 1 2 cbr 536 ------- 1 3.1 1073741825.0 71 219
+ 1.417312 3 1 cbr 536 ------- 1 3.1 1073741825.0 74 225
- 1.417312 3 1 cbr 536 ------- 1 3.1 1073741825.0 74 225
r 1.41736 1 2 cbr 536 ------- 0 1.1 1073741824.0 92 214
- 1.418795 1 2 cbr 536 ------- 1 3.1 1073741825.0 68 213
r 1.420219 1 2 cbr 536 ------- 1 3.1 1073741825.0 66 209
+ 1.420224 1 2 cbr 536 ------- 0 1.1 1073741824.0 98 226
r 1.421595 3 1 cbr 536 ------- 1 3.1 1073741825.0 72 221
+ 1.421595 1 2 cbr 536 ------- 1 3.1 1073741825.0 72 221
+ 1.4216 3 1 cbr 536 ------- 1 3.1 1073741825.0 75 227
- 1.4216 3 1 cbr 536 ------- 1 3.1 1073741825.0 75 227
- 1.421653 1 2 cbr 536 ------- 0 1.1 1073741824.0 95 220
r 1.423077 1 2 cbr 536 ------- 0 1.1 1073741824.0 93 216
- 1.424512 1 2 cbr 536 ------- 1 3.1 1073741825.0 69 215
+ 1.424512 1 2 cbr 536 ------- 0 1.1 1073741824.0 99 228
r 1.425883 3 1 cbr 536 ------- 1 3.1 1073741825.0 73 223
+ 1.425883 1 2 cbr 536 ------- 1 3.1 1073741825.0 73 223
+ 1.425888 3 1 cbr 536 ------- 1 3.1 1073741825.0 76 229
- 1.425888 3 1 cbr 536 ------- 1 3.1 1073741825.0 76 229
r 1.425936 1 2 cbr 536 ------- 1 3.1 1073741825.0 67 211
- 1.427371 1 2 cbr 536 ------- 0 1.1 1073741824.0 96 222
r 1.428795 1 2 cbr 536 ------- 0 1.1 1073741824.0 94 218
+ 1.4288 1 2 cbr 536 ------- 0 1.1 1073741824.0 100 230
r 1.430171 3 1 cbr 536 ------- 1 3.1 1073741825.0 74 225
+ 1.430171 1 2 cbr 536 ------- 1 3.1 1073741825.0 74 225
+ 1.430176 3 1 cbr 536 ------- 1 3.1 1073741825.0 77 231
- 1.430176 3 1 cbr 536 ------- 1 3.1 1073741825.0 77 231
- 1.430229 1 2 cbr 536 ------- 1 3.1 1073741825.0 70 217
r 1.431653 1 2 cbr 536 ------- 1 3.1 1073741825.0 68 213
- 1.433088 1 2 cbr 536 ------- 0 1.1 1073741824.0 97 224
+ 1.433088 1 2 cbr 536 ------- 0 1.1 1073741824.0 101 232
r 1.434459 3 1 cbr 536 ------- 1 3.1 1073741825.0 75 227
+ 1.434459 1 2 cbr 536 ------- 1 3.1 1073741825.0 75 227
+ 1.434464 3 1 cbr 536 ------- 1 3.1 1073741825.0 78 233
- 1.434464 3 1 cbr 536 ------- 1 3.1 1073741825.0 78 233
r 1.434512 1 2 cbr 536 ------- 0 1.1 1073741824.0 95 220
- 1.435947 1 2 cbr 536 ------- 1 3.1 1073741825.0 71 219
r 1.437371 1 2 cbr 536 ------- 1 3.1 1073741825.0 69 215
+ 1.437376 1 2 cbr 536 ------- 0 1.1 1073741824.0 102 234
r 1.438747 3 1 cbr 536 ------- 1 3.1 1073741825.0 76 229
+ 1.438747 1 2 cbr 536 ------- 1 3.1 1073741825.0 76 229
+ 1.438752 3 1 cbr 536 ------- 1 3.1 1073741825.0 79 235
- 1.438752 3 1 cbr 536 ------- 1 3.1 1073741825.0 79 235
- 1.438805 1 2 cbr 536 ------- 0 1.1 1073741824.0 98 226
r 1.440229 1 2 cbr 536 ------- 0 1.1 1073741824.0 96 222
- 1.441664 1 2 cbr 536 ------- 1 3.1 1073741825.0 72 221
+ 1.441664 1 2 cbr 536 ------- 0 1.1 1073741824.0 103 236
r 1.443035 3 1 cbr 536 ------- 1 3.1 1073741825.0 77 231
+ 1.443035 1 2 cbr 536 ------- 1 3.1 1073741825.0 77 231
+ 1.44304 3 1 cbr 536 ------- 1 3.1 1073741825.0 80 237
- 1.44304 3 1 cbr 536 ------- 1 3.1 1073741825.0 80 237
r 1.443088 1 2 cbr 536 ------- 1 3.1 1073741825.0 70 217
- 1.444523 1 2 cbr 536 ------- 0 1.1 1073741824.0 99 228
r 1.445947 1 2 cbr 536 ------- 0 1.1 1073741824.0 97 224
+ 1.445952 1 2 cbr 536 ------- 0 1.1 1073741824.0 104 238
r 1.447323 3 1 cbr 536 ------- 1 3.1 1073741825.0 78 233
+ 1.447323 1 2 cbr 536 ------- 1 3.1 1073741825.0 78 233
+ 1.447328 3 1 cbr 536 ------- 1 3.1 1073741825.0 81 239
- 1.447328 3 1 cbr 536 ------- 1 3.1 1073741825.0 81 239
- 1.447381 1 2 cbr 536 ------- 1 3.1 1073741825.0 73 223
r 1.448805 1 2 cbr 536 ------- 1 3.1 1073741825.0 71 219
- 1.45024 1 2 cbr 536 ------- 0 1.1 1073741824.0 100 230
+ 1.45024 1 2 cbr 536 ------- 0 1.1 1073741824.0 105 240
r 1.451611 3 1 cbr 536 ------- 1 3.1 1073741825.0 79 235
+ 1.451611 1 2 cbr 536 ------- 1 3.1 1073741825.0 79 235
+ 1.451616 3 1 cbr 536 ------- 1 3.1 1073741825.0 82 241
- 1.451616 3 1 cbr 536 ------- 1 3.1 1073741825.0 82 241
r 1.451664 1 2 cbr 536 ------- 0 1.1 1073741824.0 98 226
- 1.453099 1 2 cbr 536 ------- 1 3.1 1073741825.0 74 225
r 1.454523 1 2 cbr 536 ------- 1 3.1 1073741825.0 72 221
+ 1.454528 1 2 cbr 536 ------- 0 1.1 1073741824.0 106 242
r 1.455899 3 1 cbr 536 ------- 1 3.1 1073741825.0 80 237
+ 1.455899 1 2 cbr 536 ------- 1 3.1 1073741825.0 80 237
+ 1.455904 3 1 cbr 536 ------- 1 3.1 1073741825.0 83 243