v 0.2 eval {set sim_annotation {0.20000000000000001 3 join-group 1073741824}}
+ 0.3 0 1 cbr 536 ------- 0 0.1 1073741824.0 0 0
- 0.3 0 1 cbr 536 ------- 0 0.1 1073741824.0 0 0
+ 0.3 0 2 cbr 536 ------- 0 0.1 1073741824.0 0 0
- 0.3 0 2 cbr 536 ------- 0 0.1 1073741824.0 0 0
+ 0.304288 0 1 cbr 536 ------- 0 0.1 1073741824.0 1 1
- 0.304288 0 1 cbr 536 ------- 0 0.1 1073741824.0 1 1
+ 0.304288 0 2 cbr 536 ------- 0 0.1 1073741824.0 1 1
- 0.304288 0 2 cbr 536 ------- 0 0.1 1073741824.0 1 1
+ 0.308576 0 1 cbr 536 ------- 0 0.1 1073741824.0 2 2
- 0.308576 0 1 cbr 536 ------- 0 0.1 1073741824.0 2 2
+ 0.308576 0 2 cbr 536 ------- 0 0.1 1073741824.0 2 2
- 0.308576 0 2 cbr 536 ------- 0 0.1 1073741824.0 2 2
r 0.312859 0 1 cbr 536 ------- 0 0.1 1073741824.0 0 0
+ 0.312859 1 3 cbr 536 ------- 0 0.1 1073741824.0 0 0
- 0.312859 1 3 cbr 536 ------- 0 0.1 1073741824.0 0 0
+ 0.312859 1 4 cbr 536 ------- 0 0.1 1073741824.0 0 0
- 0.312859 1 4 cbr 536 ------- 0 0.1 1073741824.0 0 0
r 0.312859 0 2 cbr 536 ------- 0 0.1 1073741824.0 0 0
+ 0.312859 2 4 cbr 536 ------- 0 0.1 1073741824.0 0 0
- 0.312859 2 4 cbr 536 ------- 0 0.1 1073741824.0 0 0
+ 0.312859 2 5 cbr 536 ------- 0 0.1 1073741824.0 0 0
- 0.312859 2 5 cbr 536 ------- 0 0.1 1073741824.0 0 0
+ 0.312864 0 1 cbr 536 ------- 0 0.1 1073741824.0 3 3
- 0.312864 0 1 cbr 536 ------- 0 0.1 1073741824.0 3 3
+ 0.312864 0 2 cbr 536 ------- 0 0.1 1073741824.0 3 3
- 0.312864 0 2 cbr 536 ------- 0 0.1 1073741824.0 3 3
r 0.317147 0 1 cbr 536 ------- 0 0.1 1073741824.0 1 1
+ 0.317147 1 3 cbr 536 ------- 0 0.1 1073741824.0 1 1
- 0.317147 1 3 cbr 536 ------- 0 0.1 1073741824.0 1 1
+ 0.317147 1 4 cbr 536 ------- 0 0.1 1073741824.0 1 1
- 0.317147 1 4 cbr 536 ------- 0 0.1 1073741824.0 1 1
r 0.317147 0 2 cbr 536 ------- 0 0.1 1073741824.0 1 1
+ 0.317147 2 4 cbr 536 ------- 0 0.1 1073741824.0 1 1
- 0.317147 2 4 cbr 536 ------- 0 0.1 1073741824.0 1 1
+ 0.317147 2 5 cbr 536 ------- 0 0.1 1073741824.0 1 1
- 0.317147 2 5 cbr 536 ------- 0 0.1 1073741824.0 1 1
+ 0.317152 0 1 cbr 536 ------- 0 0.1 1073741824.0 4 4
- 0.317152 0 1 cbr 536 ------- 0 0.1 1073741824.0 4 4
+ 0.317152 0 2 cbr 536 ------- 0 0.1 1073741824.0 4 4
- 0.317152 0 2 cbr 536 ------- 0 0.1 1073741824.0 4 4
r 0.321435 0 1 cbr 536 ------- 0 0.1 1073741824.0 2 2
+ 0.321435 1 3 cbr 536 ------- 0 0.1 1073741824.0 2 2
- 0.321435 1 3 cbr 536 ------- 0 0.1 1073741824.0 2 2
+ 0.321435 1 4 cbr 536 ------- 0 0.1 1073741824.0 2 2
- 0.321435 1 4 cbr 536 ------- 0 0.1 1073741824.0 2 2
r 0.321435 0 2 cbr 536 ------- 0 0.1 1073741824.0 2 2
+ 0.321435 2 4 cbr 536 ------- 0 0.1 1073741824.0 2 2
- 0.321435 2 4 cbr 536 ------- 0 0.1 1073741824.0 2 2
+ 0.321435 2 5 cbr 536 ------- 0 0.1 1073741824.0 2 2
- 0.321435 2 5 cbr 536 ------- 0 0.1 1073741824.0 2 2
+ 0.32144 0 1 cbr 536 ------- 0 0.1 1073741824.0 5 5
- 0.32144 0 1 cbr 536 ------- 0 0.1 1073741824.0 5 5
+ 0.32144 0 2 cbr 536 ------- 0 0.1 1073741824.0 5 5
- 0.32144 0 2 cbr 536 ------- 0 0.1 1073741824.0 5 5
r 0.325717 1 3 cbr 536 ------- 0 0.1 1073741824.0 0 0
r 0.325717 1 4 cbr 536 ------- 0 0.1 1073741824.0 0 0
+ 0.325717 4 2 cbr 536 ------- 0 0.1 1073741824.0 0 0
- 0.325717 4 2 cbr 536 ------- 0 0.1 1073741824.0 0 0
r 0.325717 2 4 cbr 536 ------- 0 0.1 1073741824.0 0 0
+ 0.325717 4 2 prune 80 ------- 30 4.0 2.0 -1 6
r 0.325717 2 5 cbr 536 ------- 0 0.1 1073741824.0 0 0
+ 0.325717 5 2 prune 80 ------- 30 5.0 2.0 -1 7
- 0.325717 5 2 prune 80 ------- 30 5.0 2.0 -1 7
r 0.325723 0 1 cbr 536 ------- 0 0.1 1073741824.0 3 3
+ 0.325723 1 3 cbr 536 ------- 0 0.1 1073741824.0 3 3
- 0.325723 1 3 cbr 536 ------- 0 0.1 1073741824.0 3 3
+ 0.325723 1 4 cbr 536 ------- 0 0.1 1073741824.0 3 3
- 0.325723 1 4 cbr 536 ------- 0 0.1 1073741824.0 3 3
r 0.325723 0 2 cbr 536 ------- 0 0.1 1073741824.0 3 3
+ 0.325723 2 4 cbr 536 ------- 0 0.1 1073741824.0 3 3
- 0.325723 2 4 cbr 536 ------- 0 0.1 1073741824.0 3 3
+ 0.325723 2 5 cbr 536 ------- 0 0.1 1073741824.0 3 3
- 0.325723 2 5 cbr 536 ------- 0 0.1 1073741824.0 3 3
+ 0.325728 0 1 cbr 536 ------- 0 0.1 1073741824.0 6 8
- 0.325728 0 1 cbr 536 ------- 0 0.1 1073741824.0 6 8
+ 0.325728 0 2 cbr 536 ------- 0 0.1 1073741824.0 6 8
- 0.325728 0 2 cbr 536 ------- 0 0.1 1073741824.0 6 8
- 0.328576 4 2 prune 80 ------- 30 4.0 2.0 -1 6
r 0.330005 1 3 cbr 536 ------- 0 0.1 1073741824.0 1 1
r 0.330005 1 4 cbr 536 ------- 0 0.1 1073741824.0 1 1
+ 0.330005 4 2 cbr 536 ------- 0 0.1 1073741824.0 1 1
- 0.330005 4 2 cbr 536 ------- 0 0.1 1073741824.0 1 1
r 0.330005 2 4 cbr 536 ------- 0 0.1 1073741824.0 1 1
+ 0.330005 4 2 prune 80 ------- 30 4.0 2.0 -1 9
r 0.330005 2 5 cbr 536 ------- 0 0.1 1073741824.0 1 1
+ 0.330005 5 2 prune 80 ------- 30 5.0 2.0 -1 10
- 0.330005 5 2 prune 80 ------- 30 5.0 2.0 -1 10
r 0.330011 0 1 cbr 536 ------- 0 0.1 1073741824.0 4 4
+ 0.330011 1 3 cbr 536 ------- 0 0.1 1073741824.0 4 4
- 0.330011 1 3 cbr 536 ------- 0 0.1 1073741824.0 4 4
+ 0.330011 1 4 cbr 536 ------- 0 0.1 1073741824.0 4 4
- 0.330011 1 4 cbr 536 ------- 0 0.1 1073741824.0 4 4
r 0.330011 0 2 cbr 536 ------- 0 0.1 1073741824.0 4 4
+ 0.330011 2 4 cbr 536 ------- 0 0.1 1073741824.0 4 4
- 0.330011 2 4 cbr 536 ------- 0 0.1 1073741824.0 4 4
+ 0.330011 2 5 cbr 536 ------- 0 0.1 1073741824.0 4 4
- 0.330011 2 5 cbr 536 ------- 0 0.1 1073741824.0 4 4
+ 0.330016 0 1 cbr 536 ------- 0 0.1 1073741824.0 7 11
- 0.330016 0 1 cbr 536 ------- 0 0.1 1073741824.0 7 11
+ 0.330016 0 2 cbr 536 ------- 0 0.1 1073741824.0 7 11
- 0.330016 0 2 cbr 536 ------- 0 0.1 1073741824.0 7 11
- 0.332864 4 2 prune 80 ------- 30 4.0 2.0 -1 9
r 0.334293 1 3 cbr 536 ------- 0 0.1 1073741824.0 2 2
r 0.334293 1 4 cbr 536 ------- 0 0.1 1073741824.0 2 2
+ 0.334293 4 2 cbr 536 ------- 0 0.1 1073741824.0 2 2
- 0.334293 4 2 cbr 536 ------- 0 0.1 1073741824.0 2 2
r 0.334293 2 4 cbr 536 ------- 0 0.1 1073741824.0 2 2
+ 0.334293 4 2 prune 80 ------- 30 4.0 2.0 -1 12
r 0.334293 2 5 cbr 536 ------- 0 0.1 1073741824.0 2 2
+ 0.334293 5 2 prune 80 ------- 30 5.0 2.0 -1 13
- 0.334293 5 2 prune 80 ------- 30 5.0 2.0 -1 13
r 0.334299 0 1 cbr 536 ------- 0 0.1 1073741824.0 5 5
+ 0.334299 1 3 cbr 536 ------- 0 0.1 1073741824.0 5 5
- 0.334299 1 3 cbr 536 ------- 0 0.1 1073741824.0 5 5
+ 0.334299 1 4 cbr 536 ------- 0 0.1 1073741824.0 5 5
- 0.334299 1 4 cbr 536 ------- 0 0.1 1073741824.0 5 5
r 0.334299 0 2 cbr 536 ------- 0 0.1 1073741824.0 5 5
+ 0.334299 2 4 cbr 536 ------- 0 0.1 1073741824.0 5 5
- 0.334299 2 4 cbr 536 ------- 0 0.1 1073741824.0 5 5
+ 0.334299 2 5 cbr 536 ------- 0 0.1 1073741824.0 5 5
- 0.334299 2 5 cbr 536 ------- 0 0.1 1073741824.0 5 5
+ 0.334304 0 1 cbr 536 ------- 0 0.1 1073741824.0 8 14
- 0.334304 0 1 cbr 536 ------- 0 0.1 1073741824.0 8 14
+ 0.334304 0 2 cbr 536 ------- 0 0.1 1073741824.0 8 14
- 0.334304 0 2 cbr 536 ------- 0 0.1 1073741824.0 8 14
r 0.336144 5 2 prune 80 ------- 30 5.0 2.0 -1 7
- 0.337152 4 2 prune 80 ------- 30 4.0 2.0 -1 12
r 0.338576 4 2 cbr 536 ------- 0 0.1 1073741824.0 0 0
+ 0.338576 2 4 prune 80 ------- 30 2.0 4.0 -1 15
- 0.338576 2 4 prune 80 ------- 30 2.0 4.0 -1 15
r 0.338581 1 3 cbr 536 ------- 0 0.1 1073741824.0 3 3
r 0.338581 1 4 cbr 536 ------- 0 0.1 1073741824.0 3 3
+ 0.338581 4 2 cbr 536 ------- 0 0.1 1073741824.0 3 3
- 0.338581 4 2 cbr 536 ------- 0 0.1 1073741824.0 3 3
r 0.338581 2 4 cbr 536 ------- 0 0.1 1073741824.0 3 3
+ 0.338581 4 2 prune 80 ------- 30 4.0 2.0 -1 16
r 0.338581 2 5 cbr 536 ------- 0 0.1 1073741824.0 3 3
+ 0.338581 5 2 prune 80 ------- 30 5.0 2.0 -1 17
- 0.338581 5 2 prune 80 ------- 30 5.0 2.0 -1 17
r 0.338587 0 1 cbr 536 ------- 0 0.1 1073741824.0 6 8
+ 0.338587 1 3 cbr 536 ------- 0 0.1 1073741824.0 6 8
- 0.338587 1 3 cbr 536 ------- 0 0.1 1073741824.0 6 8
+ 0.338587 1 4 cbr 536 ------- 0 0.1 1073741824.0 6 8
- 0.338587 1 4 cbr 536 ------- 0 0.1 1073741824.0 6 8
r 0.338587 0 2 cbr 536 ------- 0 0.1 1073741824.0 6 8
+ 0.338587 2 4 cbr 536 ------- 0 0.1 1073741824.0 6 8
+ 0.338592 0 1 cbr 536 ------- 0 0.1 1073741824.0 9 18
- 0.338592 0 1 cbr 536 ------- 0 0.1 1073741824.0 9 18
+ 0.338592 0 2 cbr 536 ------- 0 0.1 1073741824.0 9 18
- 0.338592 0 2 cbr 536 ------- 0 0.1 1073741824.0 9 18
r 0.339003 4 2 prune 80 ------- 30 4.0 2.0 -1 6
+ 0.339003 2 0 prune 80 ------- 30 2.0 0.0 -1 19
- 0.339003 2 0 prune 80 ------- 30 2.0 0.0 -1 19
- 0.339003 2 4 cbr 536 ------- 0 0.1 1073741824.0 6 8
r 0.340432 5 2 prune 80 ------- 30 5.0 2.0 -1 10
- 0.34144 4 2 prune 80 ------- 30 4.0 2.0 -1 16
r 0.342864 4 2 cbr 536 ------- 0 0.1 1073741824.0 1 1
+ 0.342864 2 4 prune 80 ------- 30 2.0 4.0 -1 20
- 0.342864 2 4 prune 80 ------- 30 2.0 4.0 -1 20
r 0.342869 1 3 cbr 536 ------- 0 0.1 1073741824.0 4 4
r 0.342869 1 4 cbr 536 ------- 0 0.1 1073741824.0 4 4
+ 0.342869 4 2 cbr 536 ------- 0 0.1 1073741824.0 4 4
- 0.342869 4 2 cbr 536 ------- 0 0.1 1073741824.0 4 4
r 0.342869 2 4 cbr 536 ------- 0 0.1 1073741824.0 4 4
+ 0.342869 4 2 prune 80 ------- 30 4.0 2.0 -1 21
r 0.342869 2 5 cbr 536 ------- 0 0.1 1073741824.0 4 4
+ 0.342869 5 2 prune 80 ------- 30 5.0 2.0 -1 22
- 0.342869 5 2 prune 80 ------- 30 5.0 2.0 -1 22
r 0.342875 0 1 cbr 536 ------- 0 0.1 1073741824.0 7 11
+ 0.342875 1 3 cbr 536 ------- 0 0.1 1073741824.0 7 11
- 0.342875 1 3 cbr 536 ------- 0 0.1 1073741824.0 7 11
+ 0.342875 1 4 cbr 536 ------- 0 0.1 1073741824.0 7 11
- 0.342875 1 4 cbr 536 ------- 0 0.1 1073741824.0 7 11
r 0.342875 0 2 cbr 536 ------- 0 0.1 1073741824.0 7 11
+ 0.342875 2 0 prune 80 ------- 30 2.0 0.0 -1 23
- 0.342875 2 0 prune 80 ------- 30 2.0 0.0 -1 23
+ 0.34288 0 1 cbr 536 ------- 0 0.1 1073741824.0 10 24
- 0.34288 0 1 cbr 536 ------- 0 0.1 1073741824.0 10 24
+ 0.34288 0 2 cbr 536 ------- 0 0.1 1073741824.0 10 24
- 0.34288 0 2 cbr 536 ------- 0 0.1 1073741824.0 10 24
r 0.343291 4 2 prune 80 ------- 30 4.0 2.0 -1 9
r 0.34472 5 2 prune 80 ------- 30 5.0 2.0 -1 13
- 0.345728 4 2 prune 80 ------- 30 4.0 2.0 -1 21
r 0.347152 4 2 cbr 536 ------- 0 0.1 1073741824.0 2 2
+ 0.347152 2 4 prune 80 ------- 30 2.0 4.0 -1 25
- 0.347152 2 4 prune 80 ------- 30 2.0 4.0 -1 25
r 0.347157 1 3 cbr 536 ------- 0 0.1 1073741824.0 5 5
r 0.347157 1 4 cbr 536 ------- 0 0.1 1073741824.0 5 5
+ 0.347157 4 2 cbr 536 ------- 0 0.1 1073741824.0 5 5
- 0.347157 4 2 cbr 536 ------- 0 0.1 1073741824.0 5 5
r 0.347157 2 4 cbr 536 ------- 0 0.1 1073741824.0 5 5
+ 0.347157 4 2 prune 80 ------- 30 4.0 2.0 -1 26
r 0.347157 2 5 cbr 536 ------- 0 0.1 1073741824.0 5 5
+ 0.347157 5 2 prune 80 ------- 30 5.0 2.0 -1 27
- 0.347157 5 2 prune 80 ------- 30 5.0 2.0 -1 27
r 0.347163 0 1 cbr 536 ------- 0 0.1 1073741824.0 8 14
+ 0.347163 1 3 cbr 536 ------- 0 0.1 1073741824.0 8 14
- 0.347163 1 3 cbr 536 ------- 0 0.1 1073741824.0 8 14
+ 0.347163 1 4 cbr 536 ------- 0 0.1 1073741824.0 8 14
- 0.347163 1 4 cbr 536 ------- 0 0.1 1073741824.0 8 14
r 0.347163 0 2 cbr 536 ------- 0 0.1 1073741824.0 8 14
+ 0.347163 2 0 prune 80 ------- 30 2.0 0.0 -1 28
- 0.347163 2 0 prune 80 ------- 30 2.0 0.0 -1 28
+ 0.347168 0 1 cbr 536 ------- 0 0.1 1073741824.0 11 29
- 0.347168 0 1 cbr 536 ------- 0 0.1 1073741824.0 11 29
+ 0.347168 0 2 cbr 536 ------- 0 0.1 1073741824.0 11 29
- 0.347168 0 2 cbr 536 ------- 0 0.1 1073741824.0 11 29
r 0.347579 4 2 prune 80 ------- 30 4.0 2.0 -1 12
r 0.349003 2 4 prune 80 ------- 30 2.0 4.0 -1 15
+ 0.349003 4 1 prune 80 ------- 30 4.0 1.0 -1 30
- 0.349003 4 1 prune 80 ------- 30 4.0 1.0 -1 30
r 0.349008 5 2 prune 80 ------- 30 5.0 2.0 -1 17
r 0.349429 2 0 prune 80 ------- 30 2.0 0.0 -1 19
- 0.350016 4 2 prune 80 ------- 30 4.0 2.0 -1 26
r 0.35144 4 2 cbr 536 ------- 0 0.1 1073741824.0 3 3
+ 0.35144 2 4 prune 80 ------- 30 2.0 4.0 -1 31
- 0.35144 2 4 prune 80 ------- 30 2.0 4.0 -1 31
r 0.351445 1 3 cbr 536 ------- 0 0.1 1073741824.0 6 8
r 0.351445 1 4 cbr 536 ------- 0 0.1 1073741824.0 6 8
+ 0.351445 4 1 prune 80 ------- 30 4.0 1.0 -1 32
- 0.351445 4 1 prune 80 ------- 30 4.0 1.0 -1 32
r 0.351451 0 1 cbr 536 ------- 0 0.1 1073741824.0 9 18
+ 0.351451 1 3 cbr 536 ------- 0 0.1 1073741824.0 9 18
- 0.351451 1 3 cbr 536 ------- 0 0.1 1073741824.0 9 18
+ 0.351451 1 4 cbr 536 ------- 0 0.1 1073741824.0 9 18
- 0.351451 1 4 cbr 536 ------- 0 0.1 1073741824.0 9 18
r 0.351451 0 2 cbr 536 ------- 0 0.1 1073741824.0 9 18
+ 0.351451 2 0 prune 80 ------- 30 2.0 0.0 -1 33
- 0.351451 2 0 prune 80 ------- 30 2.0 0.0 -1 33
+ 0.351456 0 1 cbr 536 ------- 0 0.1 1073741824.0 12 34
- 0.351456 0 1 cbr 536 ------- 0 0.1 1073741824.0 12 34
r 0.351861 2 4 cbr 536 ------- 0 0.1 1073741824.0 6 8
+ 0.351861 4 2 prune 80 ------- 30 4.0 2.0 -1 35
- 0.351861 4 2 prune 80 ------- 30 4.0 2.0 -1 35
r 0.351867 4 2 prune 80 ------- 30 4.0 2.0 -1 16
r 0.353291 2 4 prune 80 ------- 30 2.0 4.0 -1 20
r 0.353296 5 2 prune 80 ------- 30 5.0 2.0 -1 22
r 0.353301 2 0 prune 80 ------- 30 2.0 0.0 -1 23
r 0.355728 4 2 cbr 536 ------- 0 0.1 1073741824.0 4 4
+ 0.355728 2 4 prune 80 ------- 30 2.0 4.0 -1 36
- 0.355728 2 4 prune 80 ------- 30 2.0 4.0 -1 36
r 0.355733 1 3 cbr 536 ------- 0 0.1 1073741824.0 7 11
r 0.355733 1 4 cbr 536 ------- 0 0.1 1073741824.0 7 11
+ 0.355733 4 1 prune 80 ------- 30 4.0 1.0 -1 37
- 0.355733 4 1 prune 80 ------- 30 4.0 1.0 -1 37
r 0.355739 0 1 cbr 536 ------- 0 0.1 1073741824.0 10 24
+ 0.355739 1 3 cbr 536 ------- 0 0.1 1073741824.0 10 24
- 0.355739 1 3 cbr 536 ------- 0 0.1 1073741824.0 10 24
+ 0.355739 1 4 cbr 536 ------- 0 0.1 1073741824.0 10 24
- 0.355739 1 4 cbr 536 ------- 0 0.1 1073741824.0 10 24
r 0.355739 0 2 cbr 536 ------- 0 0.1 1073741824.0 10 24
+ 0.355739 2 0 prune 80 ------- 30 2.0 0.0 -1 38
- 0.355739 2 0 prune 80 ------- 30 2.0 0.0 -1 38
+ 0.355744 0 1 cbr 536 ------- 0 0.1 1073741824.0 13 39
- 0.355744 0 1 cbr 536 ------- 0 0.1 1073741824.0 13 39
r 0.356155 4 2 prune 80 ------- 30 4.0 2.0 -1 21
r 0.357579 2 4 prune 80 ------- 30 2.0 4.0 -1 25
r 0.357584 5 2 prune 80 ------- 30 5.0 2.0 -1 27
r 0.357589 2 0 prune 80 ------- 30 2.0 0.0 -1 28
r 0.359429 4 1 prune 80 ------- 30 4.0 1.0 -1 30
r 0.360016 4 2 cbr 536 ------- 0 0.1 1073741824.0 5 5
+ 0.360016 2 4 prune 80 ------- 30 2.0 4.0 -1 40
- 0.360016 2 4 prune 80 ------- 30 2.0 4.0 -1 40
r 0.360021 1 3 cbr 536 ------- 0 0.1 1073741824.0 8 14
r 0.360021 1 4 cbr 536 ------- 0 0.1 1073741824.0 8 14
+ 0.360021 4 1 prune 80 ------- 30 4.0 1.0 -1 41
- 0.360021 4 1 prune 80 ------- 30 4.0 1.0 -1 41
r 0.360027 0 1 cbr 536 ------- 0 0.1 1073741824.0 11 29
+ 0.360027 1 3 cbr 536 ------- 0 0.1 1073741824.0 11 29
- 0.360027 1 3 cbr 536 ------- 0 0.1 1073741824.0 11 29
r 0.360027 0 2 cbr 536 ------- 0 0.1 1073741824.0 11 29
+ 0.360027 2 0 prune 80 ------- 30 2.0 0.0 -1 42
- 0.360027 2 0 prune 80 ------- 30 2.0 0.0 -1 42
+ 0.360032 0 1 cbr 536 ------- 0 0.1 1073741824.0 14 43
- 0.360032 0 1 cbr 536 ------- 0 0.1 1073741824.0 14 43
r 0.360443 4 2 prune 80 ------- 30 4.0 2.0 -1 26
r 0.361867 2 4 prune 80 ------- 30 2.0 4.0 -1 31
r 0.361872 4 1 prune 80 ------- 30 4.0 1.0 -1 32
r 0.361877 2 0 prune 80 ------- 30 2.0 0.0 -1 33
r 0.362288 4 2 prune 80 ------- 30 4.0 2.0 -1 35
r 0.364309 1 3 cbr 536 ------- 0 0.1 1073741824.0 9 18
r 0.364309 1 4 cbr 536 ------- 0 0.1 1073741824.0 9 18
+ 0.364309 4 1 prune 80 ------- 30 4.0 1.0 -1 44
- 0.364309 4 1 prune 80 ------- 30 4.0 1.0 -1 44
r 0.364315 0 1 cbr 536 ------- 0 0.1 1073741824.0 12 34
+ 0.364315 1 3 cbr 536 ------- 0 0.1 1073741824.0 12 34
- 0.364315 1 3 cbr 536 ------- 0 0.1 1073741824.0 12 34
+ 0.36432 0 1 cbr 536 ------- 0 0.1 1073741824.0 15 45
- 0.36432 0 1 cbr 536 ------- 0 0.1 1073741824.0 15 45
r 0.366155 2 4 prune 80 ------- 30 2.0 4.0 -1 36
r 0.36616 4 1 prune 80 ------- 30 4.0 1.0 -1 37
r 0.366165 2 0 prune 80 ------- 30 2.0 0.0 -1 38
r 0.368597 1 3 cbr 536 ------- 0 0.1 1073741824.0 10 24
r 0.368597 1 4 cbr 536 ------- 0 0.1 1073741824.0 10 24
+ 0.368597 4 1 prune 80 ------- 30 4.0 1.0 -1 46
- 0.368597 4 1 prune 80 ------- 30 4.0 1.0 -1 46
r 0.368603 0 1 cbr 536 ------- 0 0.1 1073741824.0 13 39
+ 0.368603 1 3 cbr 536 ------- 0 0.1 1073741824.0 13 39
- 0.368603 1 3 cbr 536 ------- 0 0.1 1073741824.0 13 39
+ 0.368608 0 1 cbr 536 ------- 0 0.1 1073741824.0 16 47
- 0.368608 0 1 cbr 536 ------- 0 0.1 1073741824.0 16 47
r 0.370443 2 4 prune 80 ------- 30 2.0 4.0 -1 40
r 0.370448 4 1 prune 80 ------- 30 4.0 1.0 -1 41
r 0.370453 2 0 prune 80 ------- 30 2.0 0.0 -1 42
r 0.372885 1 3 cbr 536 ------- 0 0.1 1073741824.0 11 29
r 0.372891 0 1 cbr 536 ------- 0 0.1 1073741824.0 14 43
+ 0.372891 1 3 cbr 536 ------- 0 0.1 1073741824.0 14 43
- 0.372891 1 3 cbr 536 ------- 0 0.1 1073741824.0 14 43
+ 0.372896 0 1 cbr 536 ------- 0 0.1 1073741824.0 17 48
- 0.372896 0 1 cbr 536 ------- 0 0.1 1073741824.0 17 48
r 0.374736 4 1 prune 80 ------- 30 4.0 1.0 -1 44
r 0.377173 1 3 cbr 536 ------- 0 0.1 1073741824.0 12 34
r 0.377179 0 1 cbr 536 ------- 0 0.1 1073741824.0 15 45
+ 0.377179 1 3 cbr 536 ------- 0 0.1 1073741824.0 15 45
- 0.377179 1 3 cbr 536 ------- 0 0.1 1073741824.0 15 45
+ 0.377184 0 1 cbr 536 ------- 0 0.1 1073741824.0 18 49
- 0.377184 0 1 cbr 536 ------- 0 0.1 1073741824.0 18 49
r 0.379024 4 1 prune 80 ------- 30 4.0 1.0 -1 46
r 0.381461 1 3 cbr 536 ------- 0 0.1 1073741824.0 13 39
r 0.381467 0 1 cbr 536 ------- 0 0.1 1073741824.0 16 47
+ 0.381467 1 3 cbr 536 ------- 0 0.1 1073741824.0 16 47
- 0.381467 1 3 cbr 536 ------- 0 0.1 1073741824.0 16 47
+ 0.381472 0 1 cbr 536 ------- 0 0.1 1073741824.0 19 50
- 0.381472 0 1 cbr 536 ------- 0 0.1 1073741824.0 19 50
r 0.385749 1 3 cbr 536 ------- 0 0.1 1073741824.0 14 43
r 0.385755 0 1 cbr 536 ------- 0 0.1 1073741824.0 17 48
+ 0.385755 1 3 cbr 536 ------- 0 0.1 1073741824.0 17 48
- 0.385755 1 3 cbr 536 ------- 0 0.1 1073741824.0 17 48
+ 0.38576 0 1 cbr 536 ------- 0 0.1 1073741824.0 20 51
- 0.38576 0 1 cbr 536 ------- 0 0.1 1073741824.0 20 51
r 0.390037 1 3 cbr 536 ------- 0 0.1 1073741824.0 15 45
r 0.390043 0 1 cbr 536 ------- 0 0.1 1073741824.0 18 49
+ 0.390043 1 3 cbr 536 ------- 0 0.1 1073741824.0 18 49
- 0.390043 1 3 cbr 536 ------- 0 0.1 1073741824.0 18 49
+ 0.390048 0 1 cbr 536 ------- 0 0.1 1073741824.0 21 52
- 0.390048 0 1 cbr 536 ------- 0 0.1 1073741824.0 21 52
r 0.394325 1 3 cbr 536 ------- 0 0.1 1073741824.0 16 47
r 0.394331 0 1 cbr 536 ------- 0 0.1 1073741824.0 19 50
+ 0.394331 1 3 cbr 536 ------- 0 0.1 1073741824.0 19 50
- 0.394331 1 3 cbr 536 ------- 0 0.1 1073741824.0 19 50
+ 0.394336 0 1 cbr 536 ------- 0 0.1 1073741824.0 22 53
- 0.394336 0 1 cbr 536 ------- 0 0.1 1073741824.0 22 53
r 0.398613 1 3 cbr 536 ------- 0 0.1 1073741824.0 17 48
r 0.398619 0 1 cbr 536 ------- 0 0.1 1073741824.0 20 51
+ 0.398619 1 3 cbr 536 ------- 0 0.1 1073741824.0 20 51
- 0.398619 1 3 cbr 536 ------- 0 0.1 1073741824.0 20 51
+ 0.398624 0 1 cbr 536 ------- 0 0.1 1073741824.0 23 54
- 0.398624 0 1 cbr 536 ------- 0 0.1 1073741824.0 23 54
v 0.4 eval {set sim_annotation {0.40000000000000002 4 join-group 1073741824}}
+ 0.4 4 1 graft 80 ------- 31 4.0 1.0 -1 55
- 0.4 4 1 graft 80 ------- 31 4.0 1.0 -1 55
r 0.402901 1 3 cbr 536 ------- 0 0.1 1073741824.0 18 49
r 0.402907 0 1 cbr 536 ------- 0 0.1 1073741824.0 21 52
+ 0.402907 1 3 cbr 536 ------- 0 0.1 1073741824.0 21 52
- 0.402907 1 3 cbr 536 ------- 0 0.1 1073741824.0 21 52
+ 0.402912 0 1 cbr 536 ------- 0 0.1 1073741824.0 24 56
- 0.402912 0 1 cbr 536 ------- 0 0.1 1073741824.0 24 56
r 0.407189 1 3 cbr 536 ------- 0 0.1 1073741824.0 19 50
r 0.407195 0 1 cbr 536 ------- 0 0.1 1073741824.0 22 53
+ 0.407195 1 3 cbr 536 ------- 0 0.1 1073741824.0 22 53
- 0.407195 1 3 cbr 536 ------- 0 0.1 1073741824.0 22 53
+ 0.4072 0 1 cbr 536 ------- 0 0.1 1073741824.0 25 57
- 0.4072 0 1 cbr 536 ------- 0 0.1 1073741824.0 25 57
r 0.410427 4 1 graft 80 ------- 31 4.0 1.0 -1 55
r 0.411477 1 3 cbr 536 ------- 0 0.1 1073741824.0 20 51
r 0.411483 0 1 cbr 536 ------- 0 0.1 1073741824.0 23 54
+ 0.411483 1 3 cbr 536 ------- 0 0.1 1073741824.0 23 54
- 0.411483 1 3 cbr 536 ------- 0 0.1 1073741824.0 23 54
+ 0.411483 1 4 cbr 536 ------- 0 0.1 1073741824.0 23 54
- 0.411483 1 4 cbr 536 ------- 0 0.1 1073741824.0 23 54
+ 0.411488 0 1 cbr 536 ------- 0 0.1 1073741824.0 26 58
- 0.411488 0 1 cbr 536 ------- 0 0.1 1073741824.0 26 58
r 0.415765 1 3 cbr 536 ------- 0 0.1 1073741824.0 21 52
r 0.415771 0 1 cbr 536 ------- 0 0.1 1073741824.0 24 56
+ 0.415771 1 3 cbr 536 ------- 0 0.1 1073741824.0 24 56
- 0.415771 1 3 cbr 536 ------- 0 0.1 1073741824.0 24 56
+ 0.415771 1 4 cbr 536 ------- 0 0.1 1073741824.0 24 56
- 0.415771 1 4 cbr 536 ------- 0 0.1 1073741824.0 24 56
+ 0.415776 0 1 cbr 536 ------- 0 0.1 1073741824.0 27 59
- 0.415776 0 1 cbr 536 ------- 0 0.1 1073741824.0 27 59
r 0.420053 1 3 cbr 536 ------- 0 0.1 1073741824.0 22 53
r 0.420059 0 1 cbr 536 ------- 0 0.1 1073741824.0 25 57
+ 0.420059 1 3 cbr 536 ------- 0 0.1 1073741824.0 25 57
- 0.420059 1 3 cbr 536 ------- 0 0.1 1073741824.0 25 57
+ 0.420059 1 4 cbr 536 ------- 0 0.1 1073741824.0 25 57
- 0.420059 1 4 cbr 536 ------- 0 0.1 1073741824.0 25 57
+ 0.420064 0 1 cbr 536 ------- 0 0.1 1073741824.0 28 60
- 0.420064 0 1 cbr 536 ------- 0 0.1 1073741824.0 28 60
r 0.424341 1 3 cbr 536 ------- 0 0.1 1073741824.0 23 54
r 0.424341 1 4 cbr 536 ------- 0 0.1 1073741824.0 23 54
r 0.424347 0 1 cbr 536 ------- 0 0.1 1073741824.0 26 58
+ 0.424347 1 3 cbr 536 ------- 0 0.1 1073741824.0 26 58
- 0.424347 1 3 cbr 536 ------- 0 0.1 1073741824.0 26 58
+ 0.424347 1 4 cbr 536 ------- 0 0.1 1073741824.0 26 58
- 0.424347 1 4 cbr 536 ------- 0 0.1 1073741824.0 26 58
+ 0.424352 0 1 cbr 536 ------- 0 0.1 1073741824.0 29 61
- 0.424352 0 1 cbr 536 ------- 0 0.1 1073741824.0 29 61
r 0.428629 1 3 cbr 536 ------- 0 0.1 1073741824.0 24 56
r 0.428629 1 4 cbr 536 ------- 0 0.1 1073741824.0 24 56
r 0.428635 0 1 cbr 536 ------- 0 0.1 1073741824.0 27 59
+ 0.428635 1 3 cbr 536 ------- 0 0.1 1073741824.0 27 59
- 0.428635 1 3 cbr 536 ------- 0 0.1 1073741824.0 27 59
+ 0.428635 1 4 cbr 536 ------- 0 0.1 1073741824.0 27 59
- 0.428635 1 4 cbr 536 ------- 0 0.1 1073741824.0 27 59
+ 0.42864 0 1 cbr 536 ------- 0 0.1 1073741824.0 30 62
- 0.42864 0 1 cbr 536 ------- 0 0.1 1073741824.0 30 62
r 0.432917 1 3 cbr 536 ------- 0 0.1 1073741824.0 25 57
r 0.432917 1 4 cbr 536 ------- 0 0.1 1073741824.0 25 57
r 0.432923 0 1 cbr 536 ------- 0 0.1 1073741824.0 28 60
+ 0.432923 1 3 cbr 536 ------- 0 0.1 1073741824.0 28 60
- 0.432923 1 3 cbr 536 ------- 0 0.1 1073741824.0 28 60
+ 0.432923 1 4 cbr 536 ------- 0 0.1 1073741824.0 28 60
- 0.432923 1 4 cbr 536 ------- 0 0.1 1073741824.0 28 60
+ 0.432928 0 1 cbr 536 ------- 0 0.1 1073741824.0 31 63
- 0.432928 0 1 cbr 536 ------- 0 0.1 1073741824.0 31 63
r 0.437205 1 3 cbr 536 ------- 0 0.1 1073741824.0 26 58
r 0.437205 1 4 cbr 536 ------- 0 0.1 1073741824.0 26 58
r 0.437211 0 1 cbr 536 ------- 0 0.1 1073741824.0 29 61
+ 0.437211 1 3 cbr 536 ------- 0 0.1 1073741824.0 29 61
- 0.437211 1 3 cbr 536 ------- 0 0.1 1073741824.0 29 61
+ 0.437211 1 4 cbr 536 ------- 0 0.1 1073741824.0 29 61
- 0.437211 1 4 cbr 536 ------- 0 0.1 1073741824.0 29 61
+ 0.437216 0 1 cbr 536 ------- 0 0.1 1073741824.0 32 64
- 0.437216 0 1 cbr 536 ------- 0 0.1 1073741824.0 32 64
r 0.441493 1 3 cbr 536 ------- 0 0.1 1073741824.0 27 59
r 0.441493 1 4 cbr 536 ------- 0 0.1 1073741824.0 27 59
r 0.441499 0 1 cbr 536 ------- 0 0.1 1073741824.0 30 62
+ 0.441499 1 3 cbr 536 ------- 0 0.1 1073741824.0 30 62
- 0.441499 1 3 cbr 536 ------- 0 0.1 1073741824.0 30 62
+ 0.441499 1 4 cbr 536 ------- 0 0.1 1073741824.0 30 62
- 0.441499 1 4 cbr 536 ------- 0 0.1 1073741824.0 30 62
+ 0.441504 0 1 cbr 536 ------- 0 0.1 1073741824.0 33 65
- 0.441504 0 1 cbr 536 ------- 0 0.1 1073741824.0 33 65
r 0.445781 1 3 cbr 536 ------- 0 0.1 1073741824.0 28 60
r 0.445781 1 4 cbr 536 ------- 0 0.1 1073741824.0 28 60
r 0.445787 0 1 cbr 536 ------- 0 0.1 1073741824.0 31 63
+ 0.445787 1 3 cbr 536 ------- 0 0.1 1073741824.0 31 63
- 0.445787 1 3 cbr 536 ------- 0 0.1 1073741824.0 31 63
+ 0.445787 1 4 cbr 536 ------- 0 0.1 1073741824.0 31 63
- 0.445787 1 4 cbr 536 ------- 0 0.1 1073741824.0 31 63
+ 0.445792 0 1 cbr 536 ------- 0 0.1 1073741824.0 34 66
- 0.445792 0 1 cbr 536 ------- 0 0.1 1073741824.0 34 66
r 0.450069 1 3 cbr 536 ------- 0 0.1 1073741824.0 29 61
r 0.450069 1 4 cbr 536 ------- 0 0.1 1073741824.0 29 61
r 0.450075 0 1 cbr 536 ------- 0 0.1 1073741824.0 32 64
+ 0.450075 1 3 cbr 536 ------- 0 0.1 1073741824.0 32 64
- 0.450075 1 3 cbr 536 ------- 0 0.1 1073741824.0 32 64
+ 0.450075 1 4 cbr 536 ------- 0 0.1 1073741824.0 32 64
- 0.450075 1 4 cbr 536 ------- 0 0.1 1073741824.0 32 64
+ 0.45008 0 1 cbr 536 ------- 0 0.1 1073741824.0 35 67
- 0.45008 0 1 cbr 536 ------- 0 0.1 1073741824.0 35 67
r 0.454357 1 3 cbr 536 ------- 0 0.1 1073741824.0 30 62
r 0.454357 1 4 cbr 536 ------- 0 0.1 1073741824.0 30 62
r 0.454363 0 1 cbr 536 ------- 0 0.1 1073741824.0 33 65
+ 0.454363 1 3 cbr 536 ------- 0 0.1 1073741824.0 33 65
- 0.454363 1 3 cbr 536 ------- 0 0.1 1073741824.0 33 65
+ 0.454363 1 4 cbr 536 ------- 0 0.1 1073741824.0 33 65
- 0.454363 1 4 cbr 536 ------- 0 0.1 1073741824.0 33 65
+ 0.454368 0 1 cbr 536 ------- 0 0.1 1073741824.0 36 68
- 0.454368 0 1 cbr 536 ------- 0 0.1 1073741824.0 36 68
r 0.458645 1 3 cbr 536 ------- 0 0.1 1073741824.0 31 63
r 0.458645 1 4 cbr 536 ------- 0 0.1 1073741824.0 31 63
r 0.458651 0 1 cbr 536 ------- 0 0.1 1073741824.0 34 66
+ 0.458651 1 3 cbr 536 ------- 0 0.1 1073741824.0 34 66
- 0.458651 1 3 cbr 536 ------- 0 0.1 1073741824.0 34 66
+ 0.458651 1 4 cbr 536 ------- 0 0.1 1073741824.0 34 66
- 0.458651 1 4 cbr 536 ------- 0 0.1 1073741824.0 34 66
+ 0.458656 0 1 cbr 536 ------- 0 0.1 1073741824.0 37 69
- 0.458656 0 1 cbr 536 ------- 0 0.1 1073741824.0 37 69
r 0.462933 1 3 cbr 536 ------- 0 0.1 1073741824.0 32 64
r 0.462933 1 4 cbr 536 ------- 0 0.1 1073741824.0 32 64
r 0.462939 0 1 cbr 536 ------- 0 0.1 1073741824.0 35 67
+ 0.462939 1 3 cbr 536 ------- 0 0.1 1073741824.0 35 67
- 0.462939 1 3 cbr 536 ------- 0 0.1 1073741824.0 35 67
+ 0.462939 1 4 cbr 536 ------- 0 0.1 1073741824.0 35 67
- 0.462939 1 4 cbr 536 ------- 0 0.1 1073741824.0 35 67
+ 0.462944 0 1 cbr 536 ------- 0 0.1 1073741824.0 38 70
- 0.462944 0 1 cbr 536 ------- 0 0.1 1073741824.0 38 70
r 0.467221 1 3 cbr 536 ------- 0 0.1 1073741824.0 33 65
r 0.467221 1 4 cbr 536 ------- 0 0.1 1073741824.0 33 65
r 0.467227 0 1 cbr 536 ------- 0 0.1 1073741824.0 36 68
+ 0.467227 1 3 cbr 536 ------- 0 0.1 1073741824.0 36 68
- 0.467227 1 3 cbr 536 ------- 0 0.1 1073741824.0 36 68
+ 0.467227 1 4 cbr 536 ------- 0 0.1 1073741824.0 36 68
- 0.467227 1 4 cbr 536 ------- 0 0.1 1073741824.0 36 68
+ 0.467232 0 1 cbr 536 ------- 0 0.1 1073741824.0 39 71
- 0.467232 0 1 cbr 536 ------- 0 0.1 1073741824.0 39 71
r 0.471509 1 3 cbr 536 ------- 0 0.1 1073741824.0 34 66
r 0.471509 1 4 cbr 536 ------- 0 0.1 1073741824.0 34 66
r 0.471515 0 1 cbr 536 ------- 0 0.1 1073741824.0 37 69
+ 0.471515 1 3 cbr 536 ------- 0 0.1 1073741824.0 37 69
- 0.471515 1 3 cbr 536 ------- 0 0.1 1073741824.0 37 69
+ 0.471515 1 4 cbr 536 ------- 0 0.1 1073741824.0 37 69
- 0.471515 1 4 cbr 536 ------- 0 0.1 1073741824.0 37 69
+ 0.47152 0 1 cbr 536 ------- 0 0.1 1073741824.0 40 72
- 0.47152 0 1 cbr 536 ------- 0 0.1 1073741824.0 40 72
r 0.475797 1 3 cbr 536 ------- 0 0.1 1073741824.0 35 67
r 0.475797 1 4 cbr 536 ------- 0 0.1 1073741824.0 35 67
r 0.475803 0 1 cbr 536 ------- 0 0.1 1073741824.0 38 70
+ 0.475803 1 3 cbr 536 ------- 0 0.1 1073741824.0 38 70
- 0.475803 1 3 cbr 536 ------- 0 0.1 1073741824.0 38 70
+ 0.475803 1 4 cbr 536 ------- 0 0.1 1073741824.0 38 70
- 0.475803 1 4 cbr 536 ------- 0 0.1 1073741824.0 38 70
+ 0.475808 0 1 cbr 536 ------- 0 0.1 1073741824.0 41 73
- 0.475808 0 1 cbr 536 ------- 0 0.1 1073741824.0 41 73
r 0.480085 1 3 cbr 536 ------- 0 0.1 1073741824.0 36 68
r 0.480085 1 4 cbr 536 ------- 0 0.1 1073741824.0 36 68
r 0.480091 0 1 cbr 536 ------- 0 0.1 1073741824.0 39 71
+ 0.480091 1 3 cbr 536 ------- 0 0.1 1073741824.0 39 71
- 0.480091 1 3 cbr 536 ------- 0 0.1 1073741824.0 39 71
+ 0.480091 1 4 cbr 536 ------- 0 0.1 1073741824.0 39 71
- 0.480091 1 4 cbr 536 ------- 0 0.1 1073741824.0 39 71
+ 0.480096 0 1 cbr 536 ------- 0 0.1 1073741824.0 42 74
- 0.480096 0 1 cbr 536 ------- 0 0.1 1073741824.0 42 74
r 0.484373 1 3 cbr 536 ------- 0 0.1 1073741824.0 37 69
r 0.484373 1 4 cbr 536 ------- 0 0.1 1073741824.0 37 69
r 0.484379 0 1 cbr 536 ------- 0 0.1 1073741824.0 40 72
+ 0.484379 1 3 cbr 536 ------- 0 0.1 1073741824.0 40 72
- 0.484379 1 3 cbr 536 ------- 0 0.1 1073741824.0 40 72
+ 0.484379 1 4 cbr 536 ------- 0 0.1 1073741824.0 40 72
- 0.484379 1 4 cbr 536 ------- 0 0.1 1073741824.0 40 72
+ 0.484384 0 1 cbr 536 ------- 0 0.1 1073741824.0 43 75
- 0.484384 0 1 cbr 536 ------- 0 0.1 1073741824.0 43 75
r 0.488661 1 3 cbr 536 ------- 0 0.1 1073741824.0 38 70
r 0.488661 1 4 cbr 536 ------- 0 0.1 1073741824.0 38 70
r 0.488667 0 1 cbr 536 ------- 0 0.1 1073741824.0 41 73
+ 0.488667 1 3 cbr 536 ------- 0 0.1 1073741824.0 41 73
- 0.488667 1 3 cbr 536 ------- 0 0.1 1073741824.0 41 73
+ 0.488667 1 4 cbr 536 ------- 0 0.1 1073741824.0 41 73
- 0.488667 1 4 cbr 536 ------- 0 0.1 1073741824.0 41 73
+ 0.488672 0 1 cbr 536 ------- 0 0.1 1073741824.0 44 76
- 0.488672 0 1 cbr 536 ------- 0 0.1 1073741824.0 44 76
r 0.492949 1 3 cbr 536 ------- 0 0.1 1073741824.0 39 71
r 0.492949 1 4 cbr 536 ------- 0 0.1 1073741824.0 39 71
r 0.492955 0 1 cbr 536 ------- 0 0.1 1073741824.0 42 74
+ 0.492955 1 3 cbr 536 ------- 0 0.1 1073741824.0 42 74
- 0.492955 1 3 cbr 536 ------- 0 0.1 1073741824.0 42 74
+ 0.492955 1 4 cbr 536 ------- 0 0.1 1073741824.0 42 74
- 0.492955 1 4 cbr 536 ------- 0 0.1 1073741824.0 42 74
+ 0.49296 0 1 cbr 536 ------- 0 0.1 1073741824.0 45 77
- 0.49296 0 1 cbr 536 ------- 0 0.1 1073741824.0 45 77
r 0.497237 1 3 cbr 536 ------- 0 0.1 1073741824.0 40 72
r 0.497237 1 4 cbr 536 ------- 0 0.1 1073741824.0 40 72
r 0.497243 0 1 cbr 536 ------- 0 0.1 1073741824.0 43 75
+ 0.497243 1 3 cbr 536 ------- 0 0.1 1073741824.0 43 75
- 0.497243 1 3 cbr 536 ------- 0 0.1 1073741824.0 43 75
+ 0.497243 1 4 cbr 536 ------- 0 0.1 1073741824.0 43 75
- 0.497243 1 4 cbr 536 ------- 0 0.1 1073741824.0 43 75
+ 0.497248 0 1 cbr 536 ------- 0 0.1 1073741824.0 46 78
- 0.497248 0 1 cbr 536 ------- 0 0.1 1073741824.0 46 78
r 0.501525 1 3 cbr 536 ------- 0 0.1 1073741824.0 41 73
r 0.501525 1 4 cbr 536 ------- 0 0.1 1073741824.0 41 73