v 0.2 eval {set sim_annotation {0.20000000000000001 3 join-group 1073741824}}
+ 0.3 0 1 cbr 536 ------- 0 0.1 1073741824.0 0 0
- 0.3 0 1 cbr 536 ------- 0 0.1 1073741824.0 0 0
+ 0.3 0 2 cbr 536 ------- 0 0.1 1073741824.0 0 0
- 0.3 0 2 cbr 536 ------- 0 0.1 1073741824.0 0 0
+ 0.304288 0 1 cbr 536 ------- 0 0.1 1073741824.0 1 1
- 0.304288 0 1 cbr 536 ------- 0 0.1 1073741824.0 1 1
+ 0.304288 0 2 cbr 536 ------- 0 0.1 1073741824.0 1 1
- 0.304288 0 2 cbr 536 ------- 0 0.1 1073741824.0 1 1
+ 0.308576 0 1 cbr 536 ------- 0 0.1 1073741824.0 2 2
- 0.308576 0 1 cbr 536 ------- 0 0.1 1073741824.0 2 2
+ 0.308576 0 2 cbr 536 ------- 0 0.1 1073741824.0 2 2
- 0.308576 0 2 cbr 536 ------- 0 0.1 1073741824.0 2 2
r 0.312859 0 1 cbr 536 ------- 0 0.1 1073741824.0 0 0
+ 0.312859 1 3 cbr 536 ------- 0 0.1 1073741824.0 0 0
- 0.312859 1 3 cbr 536 ------- 0 0.1 1073741824.0 0 0
+ 0.312859 1 4 cbr 536 ------- 0 0.1 1073741824.0 0 0
- 0.312859 1 4 cbr 536 ------- 0 0.1 1073741824.0 0 0
r 0.312859 0 2 cbr 536 ------- 0 0.1 1073741824.0 0 0
+ 0.312859 2 5 cbr 536 ------- 0 0.1 1073741824.0 0 0
- 0.312859 2 5 cbr 536 ------- 0 0.1 1073741824.0 0 0
+ 0.312864 0 1 cbr 536 ------- 0 0.1 1073741824.0 3 3
- 0.312864 0 1 cbr 536 ------- 0 0.1 1073741824.0 3 3
+ 0.312864 0 2 cbr 536 ------- 0 0.1 1073741824.0 3 3
- 0.312864 0 2 cbr 536 ------- 0 0.1 1073741824.0 3 3
r 0.317147 0 1 cbr 536 ------- 0 0.1 1073741824.0 1 1
+ 0.317147 1 3 cbr 536 ------- 0 0.1 1073741824.0 1 1
- 0.317147 1 3 cbr 536 ------- 0 0.1 1073741824.0 1 1
+ 0.317147 1 4 cbr 536 ------- 0 0.1 1073741824.0 1 1
- 0.317147 1 4 cbr 536 ------- 0 0.1 1073741824.0 1 1
r 0.317147 0 2 cbr 536 ------- 0 0.1 1073741824.0 1 1
+ 0.317147 2 5 cbr 536 ------- 0 0.1 1073741824.0 1 1
- 0.317147 2 5 cbr 536 ------- 0 0.1 1073741824.0 1 1
+ 0.317152 0 1 cbr 536 ------- 0 0.1 1073741824.0 4 4
- 0.317152 0 1 cbr 536 ------- 0 0.1 1073741824.0 4 4
+ 0.317152 0 2 cbr 536 ------- 0 0.1 1073741824.0 4 4
- 0.317152 0 2 cbr 536 ------- 0 0.1 1073741824.0 4 4
r 0.321435 0 1 cbr 536 ------- 0 0.1 1073741824.0 2 2
+ 0.321435 1 3 cbr 536 ------- 0 0.1 1073741824.0 2 2
- 0.321435 1 3 cbr 536 ------- 0 0.1 1073741824.0 2 2
+ 0.321435 1 4 cbr 536 ------- 0 0.1 1073741824.0 2 2
- 0.321435 1 4 cbr 536 ------- 0 0.1 1073741824.0 2 2
r 0.321435 0 2 cbr 536 ------- 0 0.1 1073741824.0 2 2
+ 0.321435 2 5 cbr 536 ------- 0 0.1 1073741824.0 2 2
- 0.321435 2 5 cbr 536 ------- 0 0.1 1073741824.0 2 2
+ 0.32144 0 1 cbr 536 ------- 0 0.1 1073741824.0 5 5
- 0.32144 0 1 cbr 536 ------- 0 0.1 1073741824.0 5 5
+ 0.32144 0 2 cbr 536 ------- 0 0.1 1073741824.0 5 5
- 0.32144 0 2 cbr 536 ------- 0 0.1 1073741824.0 5 5
r 0.325717 1 3 cbr 536 ------- 0 0.1 1073741824.0 0 0
r 0.325717 1 4 cbr 536 ------- 0 0.1 1073741824.0 0 0
+ 0.325717 4 1 prune 80 ------- 30 4.0 1.0 -1 6
- 0.325717 4 1 prune 80 ------- 30 4.0 1.0 -1 6
r 0.325717 2 5 cbr 536 ------- 0 0.1 1073741824.0 0 0
+ 0.325717 5 2 prune 80 ------- 30 5.0 2.0 -1 7
- 0.325717 5 2 prune 80 ------- 30 5.0 2.0 -1 7
r 0.325723 0 1 cbr 536 ------- 0 0.1 1073741824.0 3 3
+ 0.325723 1 3 cbr 536 ------- 0 0.1 1073741824.0 3 3
- 0.325723 1 3 cbr 536 ------- 0 0.1 1073741824.0 3 3
+ 0.325723 1 4 cbr 536 ------- 0 0.1 1073741824.0 3 3
- 0.325723 1 4 cbr 536 ------- 0 0.1 1073741824.0 3 3
r 0.325723 0 2 cbr 536 ------- 0 0.1 1073741824.0 3 3
+ 0.325723 2 5 cbr 536 ------- 0 0.1 1073741824.0 3 3
- 0.325723 2 5 cbr 536 ------- 0 0.1 1073741824.0 3 3
+ 0.325728 0 1 cbr 536 ------- 0 0.1 1073741824.0 6 8
- 0.325728 0 1 cbr 536 ------- 0 0.1 1073741824.0 6 8
+ 0.325728 0 2 cbr 536 ------- 0 0.1 1073741824.0 6 8
- 0.325728 0 2 cbr 536 ------- 0 0.1 1073741824.0 6 8
r 0.330005 1 3 cbr 536 ------- 0 0.1 1073741824.0 1 1
r 0.330005 1 4 cbr 536 ------- 0 0.1 1073741824.0 1 1
+ 0.330005 4 1 prune 80 ------- 30 4.0 1.0 -1 9
- 0.330005 4 1 prune 80 ------- 30 4.0 1.0 -1 9
r 0.330005 2 5 cbr 536 ------- 0 0.1 1073741824.0 1 1
+ 0.330005 5 2 prune 80 ------- 30 5.0 2.0 -1 10
- 0.330005 5 2 prune 80 ------- 30 5.0 2.0 -1 10
r 0.330011 0 1 cbr 536 ------- 0 0.1 1073741824.0 4 4
+ 0.330011 1 3 cbr 536 ------- 0 0.1 1073741824.0 4 4
- 0.330011 1 3 cbr 536 ------- 0 0.1 1073741824.0 4 4
+ 0.330011 1 4 cbr 536 ------- 0 0.1 1073741824.0 4 4
- 0.330011 1 4 cbr 536 ------- 0 0.1 1073741824.0 4 4
r 0.330011 0 2 cbr 536 ------- 0 0.1 1073741824.0 4 4
+ 0.330011 2 5 cbr 536 ------- 0 0.1 1073741824.0 4 4
- 0.330011 2 5 cbr 536 ------- 0 0.1 1073741824.0 4 4
+ 0.330016 0 1 cbr 536 ------- 0 0.1 1073741824.0 7 11
- 0.330016 0 1 cbr 536 ------- 0 0.1 1073741824.0 7 11
+ 0.330016 0 2 cbr 536 ------- 0 0.1 1073741824.0 7 11
- 0.330016 0 2 cbr 536 ------- 0 0.1 1073741824.0 7 11
r 0.334293 1 3 cbr 536 ------- 0 0.1 1073741824.0 2 2
r 0.334293 1 4 cbr 536 ------- 0 0.1 1073741824.0 2 2
+ 0.334293 4 1 prune 80 ------- 30 4.0 1.0 -1 12
- 0.334293 4 1 prune 80 ------- 30 4.0 1.0 -1 12
r 0.334293 2 5 cbr 536 ------- 0 0.1 1073741824.0 2 2
+ 0.334293 5 2 prune 80 ------- 30 5.0 2.0 -1 13
- 0.334293 5 2 prune 80 ------- 30 5.0 2.0 -1 13
r 0.334299 0 1 cbr 536 ------- 0 0.1 1073741824.0 5 5
+ 0.334299 1 3 cbr 536 ------- 0 0.1 1073741824.0 5 5
- 0.334299 1 3 cbr 536 ------- 0 0.1 1073741824.0 5 5
+ 0.334299 1 4 cbr 536 ------- 0 0.1 1073741824.0 5 5
- 0.334299 1 4 cbr 536 ------- 0 0.1 1073741824.0 5 5
r 0.334299 0 2 cbr 536 ------- 0 0.1 1073741824.0 5 5
+ 0.334299 2 5 cbr 536 ------- 0 0.1 1073741824.0 5 5
- 0.334299 2 5 cbr 536 ------- 0 0.1 1073741824.0 5 5
+ 0.334304 0 1 cbr 536 ------- 0 0.1 1073741824.0 8 14
- 0.334304 0 1 cbr 536 ------- 0 0.1 1073741824.0 8 14
+ 0.334304 0 2 cbr 536 ------- 0 0.1 1073741824.0 8 14
- 0.334304 0 2 cbr 536 ------- 0 0.1 1073741824.0 8 14
r 0.336144 4 1 prune 80 ------- 30 4.0 1.0 -1 6
r 0.336144 5 2 prune 80 ------- 30 5.0 2.0 -1 7
+ 0.336144 2 0 prune 80 ------- 30 2.0 0.0 -1 15
- 0.336144 2 0 prune 80 ------- 30 2.0 0.0 -1 15
r 0.338581 1 3 cbr 536 ------- 0 0.1 1073741824.0 3 3
r 0.338581 1 4 cbr 536 ------- 0 0.1 1073741824.0 3 3
+ 0.338581 4 1 prune 80 ------- 30 4.0 1.0 -1 16
- 0.338581 4 1 prune 80 ------- 30 4.0 1.0 -1 16
r 0.338581 2 5 cbr 536 ------- 0 0.1 1073741824.0 3 3
+ 0.338581 5 2 prune 80 ------- 30 5.0 2.0 -1 17
- 0.338581 5 2 prune 80 ------- 30 5.0 2.0 -1 17
r 0.338587 0 1 cbr 536 ------- 0 0.1 1073741824.0 6 8
+ 0.338587 1 3 cbr 536 ------- 0 0.1 1073741824.0 6 8
- 0.338587 1 3 cbr 536 ------- 0 0.1 1073741824.0 6 8
r 0.338587 0 2 cbr 536 ------- 0 0.1 1073741824.0 6 8
+ 0.338587 2 0 prune 80 ------- 30 2.0 0.0 -1 18
- 0.338587 2 0 prune 80 ------- 30 2.0 0.0 -1 18
+ 0.338592 0 1 cbr 536 ------- 0 0.1 1073741824.0 9 19
- 0.338592 0 1 cbr 536 ------- 0 0.1 1073741824.0 9 19
+ 0.338592 0 2 cbr 536 ------- 0 0.1 1073741824.0 9 19
- 0.338592 0 2 cbr 536 ------- 0 0.1 1073741824.0 9 19
r 0.340432 4 1 prune 80 ------- 30 4.0 1.0 -1 9
r 0.340432 5 2 prune 80 ------- 30 5.0 2.0 -1 10
r 0.342869 1 3 cbr 536 ------- 0 0.1 1073741824.0 4 4
r 0.342869 1 4 cbr 536 ------- 0 0.1 1073741824.0 4 4
+ 0.342869 4 1 prune 80 ------- 30 4.0 1.0 -1 20
- 0.342869 4 1 prune 80 ------- 30 4.0 1.0 -1 20
r 0.342869 2 5 cbr 536 ------- 0 0.1 1073741824.0 4 4
+ 0.342869 5 2 prune 80 ------- 30 5.0 2.0 -1 21
- 0.342869 5 2 prune 80 ------- 30 5.0 2.0 -1 21
r 0.342875 0 1 cbr 536 ------- 0 0.1 1073741824.0 7 11
+ 0.342875 1 3 cbr 536 ------- 0 0.1 1073741824.0 7 11
- 0.342875 1 3 cbr 536 ------- 0 0.1 1073741824.0 7 11
r 0.342875 0 2 cbr 536 ------- 0 0.1 1073741824.0 7 11
+ 0.342875 2 0 prune 80 ------- 30 2.0 0.0 -1 22
- 0.342875 2 0 prune 80 ------- 30 2.0 0.0 -1 22
+ 0.34288 0 1 cbr 536 ------- 0 0.1 1073741824.0 10 23
- 0.34288 0 1 cbr 536 ------- 0 0.1 1073741824.0 10 23
+ 0.34288 0 2 cbr 536 ------- 0 0.1 1073741824.0 10 23
- 0.34288 0 2 cbr 536 ------- 0 0.1 1073741824.0 10 23
r 0.34472 4 1 prune 80 ------- 30 4.0 1.0 -1 12
r 0.34472 5 2 prune 80 ------- 30 5.0 2.0 -1 13
r 0.346571 2 0 prune 80 ------- 30 2.0 0.0 -1 15
r 0.347157 1 3 cbr 536 ------- 0 0.1 1073741824.0 5 5
r 0.347157 1 4 cbr 536 ------- 0 0.1 1073741824.0 5 5
+ 0.347157 4 1 prune 80 ------- 30 4.0 1.0 -1 24
- 0.347157 4 1 prune 80 ------- 30 4.0 1.0 -1 24
r 0.347157 2 5 cbr 536 ------- 0 0.1 1073741824.0 5 5
+ 0.347157 5 2 prune 80 ------- 30 5.0 2.0 -1 25
- 0.347157 5 2 prune 80 ------- 30 5.0 2.0 -1 25
r 0.347163 0 1 cbr 536 ------- 0 0.1 1073741824.0 8 14
+ 0.347163 1 3 cbr 536 ------- 0 0.1 1073741824.0 8 14
- 0.347163 1 3 cbr 536 ------- 0 0.1 1073741824.0 8 14
r 0.347163 0 2 cbr 536 ------- 0 0.1 1073741824.0 8 14
+ 0.347163 2 0 prune 80 ------- 30 2.0 0.0 -1 26
- 0.347163 2 0 prune 80 ------- 30 2.0 0.0 -1 26
+ 0.347168 0 1 cbr 536 ------- 0 0.1 1073741824.0 11 27
- 0.347168 0 1 cbr 536 ------- 0 0.1 1073741824.0 11 27
r 0.349008 4 1 prune 80 ------- 30 4.0 1.0 -1 16
r 0.349008 5 2 prune 80 ------- 30 5.0 2.0 -1 17
r 0.349013 2 0 prune 80 ------- 30 2.0 0.0 -1 18
r 0.351445 1 3 cbr 536 ------- 0 0.1 1073741824.0 6 8
r 0.351451 0 1 cbr 536 ------- 0 0.1 1073741824.0 9 19
+ 0.351451 1 3 cbr 536 ------- 0 0.1 1073741824.0 9 19
- 0.351451 1 3 cbr 536 ------- 0 0.1 1073741824.0 9 19
r 0.351451 0 2 cbr 536 ------- 0 0.1 1073741824.0 9 19
+ 0.351451 2 0 prune 80 ------- 30 2.0 0.0 -1 28
- 0.351451 2 0 prune 80 ------- 30 2.0 0.0 -1 28
+ 0.351456 0 1 cbr 536 ------- 0 0.1 1073741824.0 12 29
- 0.351456 0 1 cbr 536 ------- 0 0.1 1073741824.0 12 29
r 0.353296 4 1 prune 80 ------- 30 4.0 1.0 -1 20
r 0.353296 5 2 prune 80 ------- 30 5.0 2.0 -1 21
r 0.353301 2 0 prune 80 ------- 30 2.0 0.0 -1 22
r 0.355733 1 3 cbr 536 ------- 0 0.1 1073741824.0 7 11
r 0.355739 0 1 cbr 536 ------- 0 0.1 1073741824.0 10 23
+ 0.355739 1 3 cbr 536 ------- 0 0.1 1073741824.0 10 23
- 0.355739 1 3 cbr 536 ------- 0 0.1 1073741824.0 10 23
r 0.355739 0 2 cbr 536 ------- 0 0.1 1073741824.0 10 23
+ 0.355739 2 0 prune 80 ------- 30 2.0 0.0 -1 30
- 0.355739 2 0 prune 80 ------- 30 2.0 0.0 -1 30
+ 0.355744 0 1 cbr 536 ------- 0 0.1 1073741824.0 13 31
- 0.355744 0 1 cbr 536 ------- 0 0.1 1073741824.0 13 31
r 0.357584 4 1 prune 80 ------- 30 4.0 1.0 -1 24
r 0.357584 5 2 prune 80 ------- 30 5.0 2.0 -1 25
r 0.357589 2 0 prune 80 ------- 30 2.0 0.0 -1 26
r 0.360021 1 3 cbr 536 ------- 0 0.1 1073741824.0 8 14
r 0.360027 0 1 cbr 536 ------- 0 0.1 1073741824.0 11 27
+ 0.360027 1 3 cbr 536 ------- 0 0.1 1073741824.0 11 27
- 0.360027 1 3 cbr 536 ------- 0 0.1 1073741824.0 11 27
+ 0.360032 0 1 cbr 536 ------- 0 0.1 1073741824.0 14 32
- 0.360032 0 1 cbr 536 ------- 0 0.1 1073741824.0 14 32
r 0.361877 2 0 prune 80 ------- 30 2.0 0.0 -1 28
r 0.364309 1 3 cbr 536 ------- 0 0.1 1073741824.0 9 19
r 0.364315 0 1 cbr 536 ------- 0 0.1 1073741824.0 12 29
+ 0.364315 1 3 cbr 536 ------- 0 0.1 1073741824.0 12 29
- 0.364315 1 3 cbr 536 ------- 0 0.1 1073741824.0 12 29
+ 0.36432 0 1 cbr 536 ------- 0 0.1 1073741824.0 15 33
- 0.36432 0 1 cbr 536 ------- 0 0.1 1073741824.0 15 33
r 0.366165 2 0 prune 80 ------- 30 2.0 0.0 -1 30
r 0.368597 1 3 cbr 536 ------- 0 0.1 1073741824.0 10 23
r 0.368603 0 1 cbr 536 ------- 0 0.1 1073741824.0 13 31
+ 0.368603 1 3 cbr 536 ------- 0 0.1 1073741824.0 13 31
- 0.368603 1 3 cbr 536 ------- 0 0.1 1073741824.0 13 31
+ 0.368608 0 1 cbr 536 ------- 0 0.1 1073741824.0 16 34
- 0.368608 0 1 cbr 536 ------- 0 0.1 1073741824.0 16 34
r 0.372885 1 3 cbr 536 ------- 0 0.1 1073741824.0 11 27
r 0.372891 0 1 cbr 536 ------- 0 0.1 1073741824.0 14 32
+ 0.372891 1 3 cbr 536 ------- 0 0.1 1073741824.0 14 32
- 0.372891 1 3 cbr 536 ------- 0 0.1 1073741824.0 14 32
+ 0.372896 0 1 cbr 536 ------- 0 0.1 1073741824.0 17 35
- 0.372896 0 1 cbr 536 ------- 0 0.1 1073741824.0 17 35
r 0.377173 1 3 cbr 536 ------- 0 0.1 1073741824.0 12 29
r 0.377179 0 1 cbr 536 ------- 0 0.1 1073741824.0 15 33
+ 0.377179 1 3 cbr 536 ------- 0 0.1 1073741824.0 15 33
- 0.377179 1 3 cbr 536 ------- 0 0.1 1073741824.0 15 33
+ 0.377184 0 1 cbr 536 ------- 0 0.1 1073741824.0 18 36
- 0.377184 0 1 cbr 536 ------- 0 0.1 1073741824.0 18 36
r 0.381461 1 3 cbr 536 ------- 0 0.1 1073741824.0 13 31
r 0.381467 0 1 cbr 536 ------- 0 0.1 1073741824.0 16 34
+ 0.381467 1 3 cbr 536 ------- 0 0.1 1073741824.0 16 34
- 0.381467 1 3 cbr 536 ------- 0 0.1 1073741824.0 16 34
+ 0.381472 0 1 cbr 536 ------- 0 0.1 1073741824.0 19 37
- 0.381472 0 1 cbr 536 ------- 0 0.1 1073741824.0 19 37
r 0.385749 1 3 cbr 536 ------- 0 0.1 1073741824.0 14 32
r 0.385755 0 1 cbr 536 ------- 0 0.1 1073741824.0 17 35
+ 0.385755 1 3 cbr 536 ------- 0 0.1 1073741824.0 17 35
- 0.385755 1 3 cbr 536 ------- 0 0.1 1073741824.0 17 35
+ 0.38576 0 1 cbr 536 ------- 0 0.1 1073741824.0 20 38
- 0.38576 0 1 cbr 536 ------- 0 0.1 1073741824.0 20 38
r 0.390037 1 3 cbr 536 ------- 0 0.1 1073741824.0 15 33
r 0.390043 0 1 cbr 536 ------- 0 0.1 1073741824.0 18 36
+ 0.390043 1 3 cbr 536 ------- 0 0.1 1073741824.0 18 36
- 0.390043 1 3 cbr 536 ------- 0 0.1 1073741824.0 18 36
+ 0.390048 0 1 cbr 536 ------- 0 0.1 1073741824.0 21 39
- 0.390048 0 1 cbr 536 ------- 0 0.1 1073741824.0 21 39
r 0.394325 1 3 cbr 536 ------- 0 0.1 1073741824.0 16 34
r 0.394331 0 1 cbr 536 ------- 0 0.1 1073741824.0 19 37
+ 0.394331 1 3 cbr 536 ------- 0 0.1 1073741824.0 19 37
- 0.394331 1 3 cbr 536 ------- 0 0.1 1073741824.0 19 37
+ 0.394336 0 1 cbr 536 ------- 0 0.1 1073741824.0 22 40
- 0.394336 0 1 cbr 536 ------- 0 0.1 1073741824.0 22 40
r 0.398613 1 3 cbr 536 ------- 0 0.1 1073741824.0 17 35
r 0.398619 0 1 cbr 536 ------- 0 0.1 1073741824.0 20 38
+ 0.398619 1 3 cbr 536 ------- 0 0.1 1073741824.0 20 38
- 0.398619 1 3 cbr 536 ------- 0 0.1 1073741824.0 20 38
+ 0.398624 0 1 cbr 536 ------- 0 0.1 1073741824.0 23 41
- 0.398624 0 1 cbr 536 ------- 0 0.1 1073741824.0 23 41
v 0.4 eval {set sim_annotation {0.40000000000000002 4 join-group 1073741824}}
+ 0.4 4 1 graft 80 ------- 31 4.0 1.0 -1 42
- 0.4 4 1 graft 80 ------- 31 4.0 1.0 -1 42
r 0.402901 1 3 cbr 536 ------- 0 0.1 1073741824.0 18 36
r 0.402907 0 1 cbr 536 ------- 0 0.1 1073741824.0 21 39
+ 0.402907 1 3 cbr 536 ------- 0 0.1 1073741824.0 21 39
- 0.402907 1 3 cbr 536 ------- 0 0.1 1073741824.0 21 39
+ 0.402912 0 1 cbr 536 ------- 0 0.1 1073741824.0 24 43
- 0.402912 0 1 cbr 536 ------- 0 0.1 1073741824.0 24 43
r 0.407189 1 3 cbr 536 ------- 0 0.1 1073741824.0 19 37
r 0.407195 0 1 cbr 536 ------- 0 0.1 1073741824.0 22 40
+ 0.407195 1 3 cbr 536 ------- 0 0.1 1073741824.0 22 40
- 0.407195 1 3 cbr 536 ------- 0 0.1 1073741824.0 22 40
+ 0.4072 0 1 cbr 536 ------- 0 0.1 1073741824.0 25 44
- 0.4072 0 1 cbr 536 ------- 0 0.1 1073741824.0 25 44
r 0.410427 4 1 graft 80 ------- 31 4.0 1.0 -1 42
r 0.411477 1 3 cbr 536 ------- 0 0.1 1073741824.0 20 38
r 0.411483 0 1 cbr 536 ------- 0 0.1 1073741824.0 23 41
+ 0.411483 1 3 cbr 536 ------- 0 0.1 1073741824.0 23 41
- 0.411483 1 3 cbr 536 ------- 0 0.1 1073741824.0 23 41
+ 0.411483 1 4 cbr 536 ------- 0 0.1 1073741824.0 23 41
- 0.411483 1 4 cbr 536 ------- 0 0.1 1073741824.0 23 41
+ 0.411488 0 1 cbr 536 ------- 0 0.1 1073741824.0 26 45
- 0.411488 0 1 cbr 536 ------- 0 0.1 1073741824.0 26 45
r 0.415765 1 3 cbr 536 ------- 0 0.1 1073741824.0 21 39
r 0.415771 0 1 cbr 536 ------- 0 0.1 1073741824.0 24 43
+ 0.415771 1 3 cbr 536 ------- 0 0.1 1073741824.0 24 43
- 0.415771 1 3 cbr 536 ------- 0 0.1 1073741824.0 24 43
+ 0.415771 1 4 cbr 536 ------- 0 0.1 1073741824.0 24 43
- 0.415771 1 4 cbr 536 ------- 0 0.1 1073741824.0 24 43
+ 0.415776 0 1 cbr 536 ------- 0 0.1 1073741824.0 27 46
- 0.415776 0 1 cbr 536 ------- 0 0.1 1073741824.0 27 46
r 0.420053 1 3 cbr 536 ------- 0 0.1 1073741824.0 22 40
r 0.420059 0 1 cbr 536 ------- 0 0.1 1073741824.0 25 44
+ 0.420059 1 3 cbr 536 ------- 0 0.1 1073741824.0 25 44
- 0.420059 1 3 cbr 536 ------- 0 0.1 1073741824.0 25 44
+ 0.420059 1 4 cbr 536 ------- 0 0.1 1073741824.0 25 44
- 0.420059 1 4 cbr 536 ------- 0 0.1 1073741824.0 25 44
+ 0.420064 0 1 cbr 536 ------- 0 0.1 1073741824.0 28 47
- 0.420064 0 1 cbr 536 ------- 0 0.1 1073741824.0 28 47
r 0.424341 1 3 cbr 536 ------- 0 0.1 1073741824.0 23 41
r 0.424341 1 4 cbr 536 ------- 0 0.1 1073741824.0 23 41
r 0.424347 0 1 cbr 536 ------- 0 0.1 1073741824.0 26 45
+ 0.424347 1 3 cbr 536 ------- 0 0.1 1073741824.0 26 45
- 0.424347 1 3 cbr 536 ------- 0 0.1 1073741824.0 26 45
+ 0.424347 1 4 cbr 536 ------- 0 0.1 1073741824.0 26 45
- 0.424347 1 4 cbr 536 ------- 0 0.1 1073741824.0 26 45
+ 0.424352 0 1 cbr 536 ------- 0 0.1 1073741824.0 29 48
- 0.424352 0 1 cbr 536 ------- 0 0.1 1073741824.0 29 48
r 0.428629 1 3 cbr 536 ------- 0 0.1 1073741824.0 24 43
r 0.428629 1 4 cbr 536 ------- 0 0.1 1073741824.0 24 43
r 0.428635 0 1 cbr 536 ------- 0 0.1 1073741824.0 27 46
+ 0.428635 1 3 cbr 536 ------- 0 0.1 1073741824.0 27 46
- 0.428635 1 3 cbr 536 ------- 0 0.1 1073741824.0 27 46
+ 0.428635 1 4 cbr 536 ------- 0 0.1 1073741824.0 27 46
- 0.428635 1 4 cbr 536 ------- 0 0.1 1073741824.0 27 46
+ 0.42864 0 1 cbr 536 ------- 0 0.1 1073741824.0 30 49
- 0.42864 0 1 cbr 536 ------- 0 0.1 1073741824.0 30 49
r 0.432917 1 3 cbr 536 ------- 0 0.1 1073741824.0 25 44
r 0.432917 1 4 cbr 536 ------- 0 0.1 1073741824.0 25 44
r 0.432923 0 1 cbr 536 ------- 0 0.1 1073741824.0 28 47
+ 0.432923 1 3 cbr 536 ------- 0 0.1 1073741824.0 28 47
- 0.432923 1 3 cbr 536 ------- 0 0.1 1073741824.0 28 47
+ 0.432923 1 4 cbr 536 ------- 0 0.1 1073741824.0 28 47
- 0.432923 1 4 cbr 536 ------- 0 0.1 1073741824.0 28 47
+ 0.432928 0 1 cbr 536 ------- 0 0.1 1073741824.0 31 50
- 0.432928 0 1 cbr 536 ------- 0 0.1 1073741824.0 31 50
r 0.437205 1 3 cbr 536 ------- 0 0.1 1073741824.0 26 45
r 0.437205 1 4 cbr 536 ------- 0 0.1 1073741824.0 26 45
r 0.437211 0 1 cbr 536 ------- 0 0.1 1073741824.0 29 48
+ 0.437211 1 3 cbr 536 ------- 0 0.1 1073741824.0 29 48
- 0.437211 1 3 cbr 536 ------- 0 0.1 1073741824.0 29 48
+ 0.437211 1 4 cbr 536 ------- 0 0.1 1073741824.0 29 48
- 0.437211 1 4 cbr 536 ------- 0 0.1 1073741824.0 29 48
+ 0.437216 0 1 cbr 536 ------- 0 0.1 1073741824.0 32 51
- 0.437216 0 1 cbr 536 ------- 0 0.1 1073741824.0 32 51
r 0.441493 1 3 cbr 536 ------- 0 0.1 1073741824.0 27 46
r 0.441493 1 4 cbr 536 ------- 0 0.1 1073741824.0 27 46
r 0.441499 0 1 cbr 536 ------- 0 0.1 1073741824.0 30 49
+ 0.441499 1 3 cbr 536 ------- 0 0.1 1073741824.0 30 49
- 0.441499 1 3 cbr 536 ------- 0 0.1 1073741824.0 30 49
+ 0.441499 1 4 cbr 536 ------- 0 0.1 1073741824.0 30 49
- 0.441499 1 4 cbr 536 ------- 0 0.1 1073741824.0 30 49
+ 0.441504 0 1 cbr 536 ------- 0 0.1 1073741824.0 33 52
- 0.441504 0 1 cbr 536 ------- 0 0.1 1073741824.0 33 52
r 0.445781 1 3 cbr 536 ------- 0 0.1 1073741824.0 28 47
r 0.445781 1 4 cbr 536 ------- 0 0.1 1073741824.0 28 47
r 0.445787 0 1 cbr 536 ------- 0 0.1 1073741824.0 31 50
+ 0.445787 1 3 cbr 536 ------- 0 0.1 1073741824.0 31 50
- 0.445787 1 3 cbr 536 ------- 0 0.1 1073741824.0 31 50
+ 0.445787 1 4 cbr 536 ------- 0 0.1 1073741824.0 31 50
- 0.445787 1 4 cbr 536 ------- 0 0.1 1073741824.0 31 50
+ 0.445792 0 1 cbr 536 ------- 0 0.1 1073741824.0 34 53
- 0.445792 0 1 cbr 536 ------- 0 0.1 1073741824.0 34 53
r 0.450069 1 3 cbr 536 ------- 0 0.1 1073741824.0 29 48
r 0.450069 1 4 cbr 536 ------- 0 0.1 1073741824.0 29 48
r 0.450075 0 1 cbr 536 ------- 0 0.1 1073741824.0 32 51
+ 0.450075 1 3 cbr 536 ------- 0 0.1 1073741824.0 32 51
- 0.450075 1 3 cbr 536 ------- 0 0.1 1073741824.0 32 51
+ 0.450075 1 4 cbr 536 ------- 0 0.1 1073741824.0 32 51
- 0.450075 1 4 cbr 536 ------- 0 0.1 1073741824.0 32 51
+ 0.45008 0 1 cbr 536 ------- 0 0.1 1073741824.0 35 54
- 0.45008 0 1 cbr 536 ------- 0 0.1 1073741824.0 35 54
r 0.454357 1 3 cbr 536 ------- 0 0.1 1073741824.0 30 49
r 0.454357 1 4 cbr 536 ------- 0 0.1 1073741824.0 30 49
r 0.454363 0 1 cbr 536 ------- 0 0.1 1073741824.0 33 52
+ 0.454363 1 3 cbr 536 ------- 0 0.1 1073741824.0 33 52
- 0.454363 1 3 cbr 536 ------- 0 0.1 1073741824.0 33 52
+ 0.454363 1 4 cbr 536 ------- 0 0.1 1073741824.0 33 52
- 0.454363 1 4 cbr 536 ------- 0 0.1 1073741824.0 33 52
+ 0.454368 0 1 cbr 536 ------- 0 0.1 1073741824.0 36 55
- 0.454368 0 1 cbr 536 ------- 0 0.1 1073741824.0 36 55
r 0.458645 1 3 cbr 536 ------- 0 0.1 1073741824.0 31 50
r 0.458645 1 4 cbr 536 ------- 0 0.1 1073741824.0 31 50
r 0.458651 0 1 cbr 536 ------- 0 0.1 1073741824.0 34 53
+ 0.458651 1 3 cbr 536 ------- 0 0.1 1073741824.0 34 53
- 0.458651 1 3 cbr 536 ------- 0 0.1 1073741824.0 34 53
+ 0.458651 1 4 cbr 536 ------- 0 0.1 1073741824.0 34 53
- 0.458651 1 4 cbr 536 ------- 0 0.1 1073741824.0 34 53
+ 0.458656 0 1 cbr 536 ------- 0 0.1 1073741824.0 37 56
- 0.458656 0 1 cbr 536 ------- 0 0.1 1073741824.0 37 56
r 0.462933 1 3 cbr 536 ------- 0 0.1 1073741824.0 32 51
r 0.462933 1 4 cbr 536 ------- 0 0.1 1073741824.0 32 51
r 0.462939 0 1 cbr 536 ------- 0 0.1 1073741824.0 35 54
+ 0.462939 1 3 cbr 536 ------- 0 0.1 1073741824.0 35 54
- 0.462939 1 3 cbr 536 ------- 0 0.1 1073741824.0 35 54
+ 0.462939 1 4 cbr 536 ------- 0 0.1 1073741824.0 35 54
- 0.462939 1 4 cbr 536 ------- 0 0.1 1073741824.0 35 54
+ 0.462944 0 1 cbr 536 ------- 0 0.1 1073741824.0 38 57
- 0.462944 0 1 cbr 536 ------- 0 0.1 1073741824.0 38 57
r 0.467221 1 3 cbr 536 ------- 0 0.1 1073741824.0 33 52
r 0.467221 1 4 cbr 536 ------- 0 0.1 1073741824.0 33 52
r 0.467227 0 1 cbr 536 ------- 0 0.1 1073741824.0 36 55
+ 0.467227 1 3 cbr 536 ------- 0 0.1 1073741824.0 36 55
- 0.467227 1 3 cbr 536 ------- 0 0.1 1073741824.0 36 55
+ 0.467227 1 4 cbr 536 ------- 0 0.1 1073741824.0 36 55
- 0.467227 1 4 cbr 536 ------- 0 0.1 1073741824.0 36 55
+ 0.467232 0 1 cbr 536 ------- 0 0.1 1073741824.0 39 58
- 0.467232 0 1 cbr 536 ------- 0 0.1 1073741824.0 39 58
r 0.471509 1 3 cbr 536 ------- 0 0.1 1073741824.0 34 53
r 0.471509 1 4 cbr 536 ------- 0 0.1 1073741824.0 34 53
r 0.471515 0 1 cbr 536 ------- 0 0.1 1073741824.0 37 56
+ 0.471515 1 3 cbr 536 ------- 0 0.1 1073741824.0 37 56
- 0.471515 1 3 cbr 536 ------- 0 0.1 1073741824.0 37 56
+ 0.471515 1 4 cbr 536 ------- 0 0.1 1073741824.0 37 56
- 0.471515 1 4 cbr 536 ------- 0 0.1 1073741824.0 37 56
+ 0.47152 0 1 cbr 536 ------- 0 0.1 1073741824.0 40 59
- 0.47152 0 1 cbr 536 ------- 0 0.1 1073741824.0 40 59
r 0.475797 1 3 cbr 536 ------- 0 0.1 1073741824.0 35 54
r 0.475797 1 4 cbr 536 ------- 0 0.1 1073741824.0 35 54
r 0.475803 0 1 cbr 536 ------- 0 0.1 1073741824.0 38 57
+ 0.475803 1 3 cbr 536 ------- 0 0.1 1073741824.0 38 57
- 0.475803 1 3 cbr 536 ------- 0 0.1 1073741824.0 38 57
+ 0.475803 1 4 cbr 536 ------- 0 0.1 1073741824.0 38 57
- 0.475803 1 4 cbr 536 ------- 0 0.1 1073741824.0 38 57
+ 0.475808 0 1 cbr 536 ------- 0 0.1 1073741824.0 41 60
- 0.475808 0 1 cbr 536 ------- 0 0.1 1073741824.0 41 60
r 0.480085 1 3 cbr 536 ------- 0 0.1 1073741824.0 36 55
r 0.480085 1 4 cbr 536 ------- 0 0.1 1073741824.0 36 55
r 0.480091 0 1 cbr 536 ------- 0 0.1 1073741824.0 39 58
+ 0.480091 1 3 cbr 536 ------- 0 0.1 1073741824.0 39 58
- 0.480091 1 3 cbr 536 ------- 0 0.1 1073741824.0 39 58
+ 0.480091 1 4 cbr 536 ------- 0 0.1 1073741824.0 39 58
- 0.480091 1 4 cbr 536 ------- 0 0.1 1073741824.0 39 58
+ 0.480096 0 1 cbr 536 ------- 0 0.1 1073741824.0 42 61
- 0.480096 0 1 cbr 536 ------- 0 0.1 1073741824.0 42 61
r 0.484373 1 3 cbr 536 ------- 0 0.1 1073741824.0 37 56
r 0.484373 1 4 cbr 536 ------- 0 0.1 1073741824.0 37 56
r 0.484379 0 1 cbr 536 ------- 0 0.1 1073741824.0 40 59
+ 0.484379 1 3 cbr 536 ------- 0 0.1 1073741824.0 40 59
- 0.484379 1 3 cbr 536 ------- 0 0.1 1073741824.0 40 59
+ 0.484379 1 4 cbr 536 ------- 0 0.1 1073741824.0 40 59
- 0.484379 1 4 cbr 536 ------- 0 0.1 1073741824.0 40 59
+ 0.484384 0 1 cbr 536 ------- 0 0.1 1073741824.0 43 62
- 0.484384 0 1 cbr 536 ------- 0 0.1 1073741824.0 43 62
r 0.488661 1 3 cbr 536 ------- 0 0.1 1073741824.0 38 57
r 0.488661 1 4 cbr 536 ------- 0 0.1 1073741824.0 38 57
r 0.488667 0 1 cbr 536 ------- 0 0.1 1073741824.0 41 60
+ 0.488667 1 3 cbr 536 ------- 0 0.1 1073741824.0 41 60
- 0.488667 1 3 cbr 536 ------- 0 0.1 1073741824.0 41 60
+ 0.488667 1 4 cbr 536 ------- 0 0.1 1073741824.0 41 60
- 0.488667 1 4 cbr 536 ------- 0 0.1 1073741824.0 41 60
+ 0.488672 0 1 cbr 536 ------- 0 0.1 1073741824.0 44 63
- 0.488672 0 1 cbr 536 ------- 0 0.1 1073741824.0 44 63
r 0.492949 1 3 cbr 536 ------- 0 0.1 1073741824.0 39 58
r 0.492949 1 4 cbr 536 ------- 0 0.1 1073741824.0 39 58
r 0.492955 0 1 cbr 536 ------- 0 0.1 1073741824.0 42 61
+ 0.492955 1 3 cbr 536 ------- 0 0.1 1073741824.0 42 61
- 0.492955 1 3 cbr 536 ------- 0 0.1 1073741824.0 42 61
+ 0.492955 1 4 cbr 536 ------- 0 0.1 1073741824.0 42 61
- 0.492955 1 4 cbr 536 ------- 0 0.1 1073741824.0 42 61
+ 0.49296 0 1 cbr 536 ------- 0 0.1 1073741824.0 45 64
- 0.49296 0 1 cbr 536 ------- 0 0.1 1073741824.0 45 64
r 0.497237 1 3 cbr 536 ------- 0 0.1 1073741824.0 40 59
r 0.497237 1 4 cbr 536 ------- 0 0.1 1073741824.0 40 59
r 0.497243 0 1 cbr 536 ------- 0 0.1 1073741824.0 43 62
+ 0.497243 1 3 cbr 536 ------- 0 0.1 1073741824.0 43 62
- 0.497243 1 3 cbr 536 ------- 0 0.1 1073741824.0 43 62
+ 0.497243 1 4 cbr 536 ------- 0 0.1 1073741824.0 43 62
- 0.497243 1 4 cbr 536 ------- 0 0.1 1073741824.0 43 62
+ 0.497248 0 1 cbr 536 ------- 0 0.1 1073741824.0 46 65
- 0.497248 0 1 cbr 536 ------- 0 0.1 1073741824.0 46 65
r 0.501525 1 3 cbr 536 ------- 0 0.1 1073741824.0 41 60
r 0.501525 1 4 cbr 536 ------- 0 0.1 1073741824.0 41 60
r 0.501531 0 1 cbr 536 ------- 0 0.1 1073741824.0 44 63
+ 0.501531 1 3 cbr 536 ------- 0 0.1 1073741824.0 44 63
- 0.501531 1 3 cbr 536 ------- 0 0.1 1073741824.0 44 63
+ 0.501531 1 4 cbr 536 ------- 0 0.1 1073741824.0 44 63
- 0.501531 1 4 cbr 536 ------- 0 0.1 1073741824.0 44 63
+ 0.501536 0 1 cbr 536 ------- 0 0.1 1073741824.0 47 66
- 0.501536 0 1 cbr 536 ------- 0 0.1 1073741824.0 47 66
r 0.505813 1 3 cbr 536 ------- 0 0.1 1073741824.0 42 61
r 0.505813 1 4 cbr 536 ------- 0 0.1 1073741824.0 42 61
r 0.505819 0 1 cbr 536 ------- 0 0.1 1073741824.0 45 64
+ 0.505819 1 3 cbr 536 ------- 0 0.1 1073741824.0 45 64
- 0.505819 1 3 cbr 536 ------- 0 0.1 1073741824.0 45 64
+ 0.505819 1 4 cbr 536 ------- 0 0.1 1073741824.0 45 64
- 0.505819 1 4 cbr 536 ------- 0 0.1 1073741824.0 45 64
+ 0.505824 0 1 cbr 536 ------- 0 0.1 1073741824.0 48 67
- 0.505824 0 1 cbr 536 ------- 0 0.1 1073741824.0 48 67
r 0.510101 1 3 cbr 536 ------- 0 0.1 1073741824.0 43 62
r 0.510101 1 4 cbr 536 ------- 0 0.1 1073741824.0 43 62
r 0.510107 0 1 cbr 536 ------- 0 0.1 1073741824.0 46 65
+ 0.510107 1 3 cbr 536 ------- 0 0.1 1073741824.0 46 65
- 0.510107 1 3 cbr 536 ------- 0 0.1 1073741824.0 46 65
+ 0.510107 1 4 cbr 536 ------- 0 0.1 1073741824.0 46 65
- 0.510107 1 4 cbr 536 ------- 0 0.1 1073741824.0 46 65
+ 0.510112 0 1 cbr 536 ------- 0 0.1 1073741824.0 49 68
- 0.510112 0 1 cbr 536 ------- 0 0.1 1073741824.0 49 68
r 0.514389 1 3 cbr 536 ------- 0 0.1 1073741824.0 44 63
r 0.514389 1 4 cbr 536 ------- 0 0.1 1073741824.0 44 63
r 0.514395 0 1 cbr 536 ------- 0 0.1 1073741824.0 47 66
+ 0.514395 1 3 cbr 536 ------- 0 0.1 1073741824.0 47 66
- 0.514395 1 3 cbr 536 ------- 0 0.1 1073741824.0 47 66
+ 0.514395 1 4 cbr 536 ------- 0 0.1 1073741824.0 47 66
- 0.514395 1 4 cbr 536 ------- 0 0.1 1073741824.0 47 66
+ 0.5144 0 1 cbr 536 ------- 0 0.1 1073741824.0 50 69
- 0.5144 0 1 cbr 536 ------- 0 0.1 1073741824.0 50 69
r 0.518677 1 3 cbr 536 ------- 0 0.1 1073741824.0 45 64
r 0.518677 1 4 cbr 536 ------- 0 0.1 1073741824.0 45 64
r 0.518683 0 1 cbr 536 ------- 0 0.1 1073741824.0 48 67
+ 0.518683 1 3 cbr 536 ------- 0 0.1 1073741824.0 48 67
- 0.518683 1 3 cbr 536 ------- 0 0.1 1073741824.0 48 67
+ 0.518683 1 4 cbr 536 ------- 0 0.1 1073741824.0 48 67
- 0.518683 1 4 cbr 536 ------- 0 0.1 1073741824.0 48 67
+ 0.518688 0 1 cbr 536 ------- 0 0.1 1073741824.0 51 70
- 0.518688 0 1 cbr 536 ------- 0 0.1 1073741824.0 51 70
r 0.522965 1 3 cbr 536 ------- 0 0.1 1073741824.0 46 65
r 0.522965 1 4 cbr 536 ------- 0 0.1 1073741824.0 46 65
r 0.522971 0 1 cbr 536 ------- 0 0.1 1073741824.0 49 68
+ 0.522971 1 3 cbr 536 ------- 0 0.1 1073741824.0 49 68
- 0.522971 1 3 cbr 536 ------- 0 0.1 1073741824.0 49 68
+ 0.522971 1 4 cbr 536 ------- 0 0.1 1073741824.0 49 68
- 0.522971 1 4 cbr 536 ------- 0 0.1 1073741824.0 49 68
+ 0.522976 0 1 cbr 536 ------- 0 0.1 1073741824.0 52 71
- 0.522976 0 1 cbr 536 ------- 0 0.1 1073741824.0 52 71
r 0.527253 1 3 cbr 536 ------- 0 0.1 1073741824.0 47 66
r 0.527253 1 4 cbr 536 ------- 0 0.1 1073741824.0 47 66
r 0.527259 0 1 cbr 536 ------- 0 0.1 1073741824.0 50 69
+ 0.527259 1 3 cbr 536 ------- 0 0.1 1073741824.0 50 69
- 0.527259 1 3 cbr 536 ------- 0 0.1 1073741824.0 50 69
+ 0.527259 1 4 cbr 536 ------- 0 0.1 1073741824.0 50 69
- 0.527259 1 4 cbr 536 ------- 0 0.1 1073741824.0 50 69
+ 0.527264 0 1 cbr 536 ------- 0 0.1 1073741824.0 53 72
- 0.527264 0 1 cbr 536 ------- 0 0.1 1073741824.0 53 72
r 0.531541 1 3 cbr 536 ------- 0 0.1 1073741824.0 48 67
r 0.531541 1 4 cbr 536 ------- 0 0.1 1073741824.0 48 67
r 0.531547 0 1 cbr 536 ------- 0 0.1 1073741824.0 51 70
+ 0.531547 1 3 cbr 536 ------- 0 0.1 1073741824.0 51 70
- 0.531547 1 3 cbr 536 ------- 0 0.1 1073741824.0 51 70
+ 0.531547 1 4 cbr 536 ------- 0 0.1 1073741824.0 51 70
- 0.531547 1 4 cbr 536 ------- 0 0.1 1073741824.0 51 70
+ 0.531552 0 1 cbr 536 ------- 0 0.1 1073741824.0 54 73
- 0.531552 0 1 cbr 536 ------- 0 0.1 1073741824.0 54 73
r 0.535829 1 3 cbr 536 ------- 0 0.1 1073741824.0 49 68
r 0.535829 1 4 cbr 536 ------- 0 0.1 1073741824.0 49 68
r 0.535835 0 1 cbr 536 ------- 0 0.1 1073741824.0 52 71
+ 0.535835 1 3 cbr 536 ------- 0 0.1 1073741824.0 52 71
- 0.535835 1 3 cbr 536 ------- 0 0.1 1073741824.0 52 71
+ 0.535835 1 4 cbr 536 ------- 0 0.1 1073741824.0 52 71
- 0.535835 1 4 cbr 536 ------- 0 0.1 1073741824.0 52 71
+ 0.53584 0 1 cbr 536 ------- 0 0.1 1073741824.0 55 74
- 0.53584 0 1 cbr 536 ------- 0 0.1 1073741824.0 55 74
r 0.540117 1 3 cbr 536 ------- 0 0.1 1073741824.0 50 69
r 0.540117 1 4 cbr 536 ------- 0 0.1 1073741824.0 50 69
r 0.540123 0 1 cbr 536 ------- 0 0.1 1073741824.0 53 72
+ 0.540123 1 3 cbr 536 ------- 0 0.1 1073741824.0 53 72
- 0.540123 1 3 cbr 536 ------- 0 0.1 1073741824.0 53 72
+ 0.540123 1 4 cbr 536 ------- 0 0.1 1073741824.0 53 72
- 0.540123 1 4 cbr 536 ------- 0 0.1 1073741824.0 53 72
+ 0.540128 0 1 cbr 536 ------- 0 0.1 1073741824.0 56 75
- 0.540128 0 1 cbr 536 ------- 0 0.1 1073741824.0 56 75
r 0.544405 1 3 cbr 536 ------- 0 0.1 1073741824.0 51 70
r 0.544405 1 4 cbr 536 ------- 0 0.1 1073741824.0 51 70