+ 0.1 0 1 cbr 536 ------- 0 0.1 1073741824.0 0 0
- 0.1 0 1 cbr 536 ------- 0 0.1 1073741824.0 0 0
+ 0.1 0 2 cbr 536 ------- 0 0.1 1073741824.0 0 0
- 0.1 0 2 cbr 536 ------- 0 0.1 1073741824.0 0 0
+ 0.104288 0 1 cbr 536 ------- 0 0.1 1073741824.0 1 1
- 0.104288 0 1 cbr 536 ------- 0 0.1 1073741824.0 1 1
+ 0.104288 0 2 cbr 536 ------- 0 0.1 1073741824.0 1 1
- 0.104288 0 2 cbr 536 ------- 0 0.1 1073741824.0 1 1
+ 0.108576 0 1 cbr 536 ------- 0 0.1 1073741824.0 2 2
- 0.108576 0 1 cbr 536 ------- 0 0.1 1073741824.0 2 2
+ 0.108576 0 2 cbr 536 ------- 0 0.1 1073741824.0 2 2
- 0.108576 0 2 cbr 536 ------- 0 0.1 1073741824.0 2 2
r 0.112859 0 1 cbr 536 ------- 0 0.1 1073741824.0 0 0
+ 0.112859 1 3 cbr 536 ------- 0 0.1 1073741824.0 0 0
- 0.112859 1 3 cbr 536 ------- 0 0.1 1073741824.0 0 0
+ 0.112859 1 4 cbr 536 ------- 0 0.1 1073741824.0 0 0
- 0.112859 1 4 cbr 536 ------- 0 0.1 1073741824.0 0 0
r 0.112859 0 2 cbr 536 ------- 0 0.1 1073741824.0 0 0
+ 0.112859 2 4 cbr 536 ------- 0 0.1 1073741824.0 0 0
- 0.112859 2 4 cbr 536 ------- 0 0.1 1073741824.0 0 0
+ 0.112859 2 5 cbr 536 ------- 0 0.1 1073741824.0 0 0
- 0.112859 2 5 cbr 536 ------- 0 0.1 1073741824.0 0 0
+ 0.112864 0 1 cbr 536 ------- 0 0.1 1073741824.0 3 3
- 0.112864 0 1 cbr 536 ------- 0 0.1 1073741824.0 3 3
+ 0.112864 0 2 cbr 536 ------- 0 0.1 1073741824.0 3 3
- 0.112864 0 2 cbr 536 ------- 0 0.1 1073741824.0 3 3
r 0.117147 0 1 cbr 536 ------- 0 0.1 1073741824.0 1 1
+ 0.117147 1 3 cbr 536 ------- 0 0.1 1073741824.0 1 1
- 0.117147 1 3 cbr 536 ------- 0 0.1 1073741824.0 1 1
+ 0.117147 1 4 cbr 536 ------- 0 0.1 1073741824.0 1 1
- 0.117147 1 4 cbr 536 ------- 0 0.1 1073741824.0 1 1
r 0.117147 0 2 cbr 536 ------- 0 0.1 1073741824.0 1 1
+ 0.117147 2 4 cbr 536 ------- 0 0.1 1073741824.0 1 1
- 0.117147 2 4 cbr 536 ------- 0 0.1 1073741824.0 1 1
+ 0.117147 2 5 cbr 536 ------- 0 0.1 1073741824.0 1 1
- 0.117147 2 5 cbr 536 ------- 0 0.1 1073741824.0 1 1
+ 0.117152 0 1 cbr 536 ------- 0 0.1 1073741824.0 4 4
- 0.117152 0 1 cbr 536 ------- 0 0.1 1073741824.0 4 4
+ 0.117152 0 2 cbr 536 ------- 0 0.1 1073741824.0 4 4
- 0.117152 0 2 cbr 536 ------- 0 0.1 1073741824.0 4 4
r 0.121435 0 1 cbr 536 ------- 0 0.1 1073741824.0 2 2
+ 0.121435 1 3 cbr 536 ------- 0 0.1 1073741824.0 2 2
- 0.121435 1 3 cbr 536 ------- 0 0.1 1073741824.0 2 2
+ 0.121435 1 4 cbr 536 ------- 0 0.1 1073741824.0 2 2
- 0.121435 1 4 cbr 536 ------- 0 0.1 1073741824.0 2 2
r 0.121435 0 2 cbr 536 ------- 0 0.1 1073741824.0 2 2
+ 0.121435 2 4 cbr 536 ------- 0 0.1 1073741824.0 2 2
- 0.121435 2 4 cbr 536 ------- 0 0.1 1073741824.0 2 2
+ 0.121435 2 5 cbr 536 ------- 0 0.1 1073741824.0 2 2
- 0.121435 2 5 cbr 536 ------- 0 0.1 1073741824.0 2 2
+ 0.12144 0 1 cbr 536 ------- 0 0.1 1073741824.0 5 5
- 0.12144 0 1 cbr 536 ------- 0 0.1 1073741824.0 5 5
+ 0.12144 0 2 cbr 536 ------- 0 0.1 1073741824.0 5 5
- 0.12144 0 2 cbr 536 ------- 0 0.1 1073741824.0 5 5
r 0.125717 1 3 cbr 536 ------- 0 0.1 1073741824.0 0 0
+ 0.125717 3 1 prune 80 ------- 30 3.0 1.0 -1 6
- 0.125717 3 1 prune 80 ------- 30 3.0 1.0 -1 6
r 0.125717 1 4 cbr 536 ------- 0 0.1 1073741824.0 0 0
+ 0.125717 4 2 cbr 536 ------- 0 0.1 1073741824.0 0 0
- 0.125717 4 2 cbr 536 ------- 0 0.1 1073741824.0 0 0
r 0.125717 2 4 cbr 536 ------- 0 0.1 1073741824.0 0 0
+ 0.125717 4 2 prune 80 ------- 30 4.0 2.0 -1 7
r 0.125717 2 5 cbr 536 ------- 0 0.1 1073741824.0 0 0
+ 0.125717 5 2 prune 80 ------- 30 5.0 2.0 -1 8
- 0.125717 5 2 prune 80 ------- 30 5.0 2.0 -1 8
r 0.125723 0 1 cbr 536 ------- 0 0.1 1073741824.0 3 3
+ 0.125723 1 3 cbr 536 ------- 0 0.1 1073741824.0 3 3
- 0.125723 1 3 cbr 536 ------- 0 0.1 1073741824.0 3 3
+ 0.125723 1 4 cbr 536 ------- 0 0.1 1073741824.0 3 3
- 0.125723 1 4 cbr 536 ------- 0 0.1 1073741824.0 3 3
r 0.125723 0 2 cbr 536 ------- 0 0.1 1073741824.0 3 3
+ 0.125723 2 4 cbr 536 ------- 0 0.1 1073741824.0 3 3
- 0.125723 2 4 cbr 536 ------- 0 0.1 1073741824.0 3 3
+ 0.125723 2 5 cbr 536 ------- 0 0.1 1073741824.0 3 3
- 0.125723 2 5 cbr 536 ------- 0 0.1 1073741824.0 3 3
+ 0.125728 0 1 cbr 536 ------- 0 0.1 1073741824.0 6 9
- 0.125728 0 1 cbr 536 ------- 0 0.1 1073741824.0 6 9
+ 0.125728 0 2 cbr 536 ------- 0 0.1 1073741824.0 6 9
- 0.125728 0 2 cbr 536 ------- 0 0.1 1073741824.0 6 9
- 0.128576 4 2 prune 80 ------- 30 4.0 2.0 -1 7
r 0.130005 1 3 cbr 536 ------- 0 0.1 1073741824.0 1 1
+ 0.130005 3 1 prune 80 ------- 30 3.0 1.0 -1 10
- 0.130005 3 1 prune 80 ------- 30 3.0 1.0 -1 10
r 0.130005 1 4 cbr 536 ------- 0 0.1 1073741824.0 1 1
+ 0.130005 4 2 cbr 536 ------- 0 0.1 1073741824.0 1 1
- 0.130005 4 2 cbr 536 ------- 0 0.1 1073741824.0 1 1
r 0.130005 2 4 cbr 536 ------- 0 0.1 1073741824.0 1 1
+ 0.130005 4 2 prune 80 ------- 30 4.0 2.0 -1 11
r 0.130005 2 5 cbr 536 ------- 0 0.1 1073741824.0 1 1
+ 0.130005 5 2 prune 80 ------- 30 5.0 2.0 -1 12
- 0.130005 5 2 prune 80 ------- 30 5.0 2.0 -1 12
r 0.130011 0 1 cbr 536 ------- 0 0.1 1073741824.0 4 4
+ 0.130011 1 3 cbr 536 ------- 0 0.1 1073741824.0 4 4
- 0.130011 1 3 cbr 536 ------- 0 0.1 1073741824.0 4 4
+ 0.130011 1 4 cbr 536 ------- 0 0.1 1073741824.0 4 4
- 0.130011 1 4 cbr 536 ------- 0 0.1 1073741824.0 4 4
r 0.130011 0 2 cbr 536 ------- 0 0.1 1073741824.0 4 4
+ 0.130011 2 4 cbr 536 ------- 0 0.1 1073741824.0 4 4
- 0.130011 2 4 cbr 536 ------- 0 0.1 1073741824.0 4 4
+ 0.130011 2 5 cbr 536 ------- 0 0.1 1073741824.0 4 4
- 0.130011 2 5 cbr 536 ------- 0 0.1 1073741824.0 4 4
+ 0.130016 0 1 cbr 536 ------- 0 0.1 1073741824.0 7 13
- 0.130016 0 1 cbr 536 ------- 0 0.1 1073741824.0 7 13
+ 0.130016 0 2 cbr 536 ------- 0 0.1 1073741824.0 7 13
- 0.130016 0 2 cbr 536 ------- 0 0.1 1073741824.0 7 13
- 0.132864 4 2 prune 80 ------- 30 4.0 2.0 -1 11
r 0.134293 1 3 cbr 536 ------- 0 0.1 1073741824.0 2 2
+ 0.134293 3 1 prune 80 ------- 30 3.0 1.0 -1 14
- 0.134293 3 1 prune 80 ------- 30 3.0 1.0 -1 14
r 0.134293 1 4 cbr 536 ------- 0 0.1 1073741824.0 2 2
+ 0.134293 4 2 cbr 536 ------- 0 0.1 1073741824.0 2 2
- 0.134293 4 2 cbr 536 ------- 0 0.1 1073741824.0 2 2
r 0.134293 2 4 cbr 536 ------- 0 0.1 1073741824.0 2 2
+ 0.134293 4 2 prune 80 ------- 30 4.0 2.0 -1 15
r 0.134293 2 5 cbr 536 ------- 0 0.1 1073741824.0 2 2
+ 0.134293 5 2 prune 80 ------- 30 5.0 2.0 -1 16
- 0.134293 5 2 prune 80 ------- 30 5.0 2.0 -1 16
r 0.134299 0 1 cbr 536 ------- 0 0.1 1073741824.0 5 5
+ 0.134299 1 3 cbr 536 ------- 0 0.1 1073741824.0 5 5
- 0.134299 1 3 cbr 536 ------- 0 0.1 1073741824.0 5 5
+ 0.134299 1 4 cbr 536 ------- 0 0.1 1073741824.0 5 5
- 0.134299 1 4 cbr 536 ------- 0 0.1 1073741824.0 5 5
r 0.134299 0 2 cbr 536 ------- 0 0.1 1073741824.0 5 5
+ 0.134299 2 4 cbr 536 ------- 0 0.1 1073741824.0 5 5
- 0.134299 2 4 cbr 536 ------- 0 0.1 1073741824.0 5 5
+ 0.134299 2 5 cbr 536 ------- 0 0.1 1073741824.0 5 5
- 0.134299 2 5 cbr 536 ------- 0 0.1 1073741824.0 5 5
+ 0.134304 0 1 cbr 536 ------- 0 0.1 1073741824.0 8 17
- 0.134304 0 1 cbr 536 ------- 0 0.1 1073741824.0 8 17
+ 0.134304 0 2 cbr 536 ------- 0 0.1 1073741824.0 8 17
- 0.134304 0 2 cbr 536 ------- 0 0.1 1073741824.0 8 17
r 0.136144 3 1 prune 80 ------- 30 3.0 1.0 -1 6
r 0.136144 5 2 prune 80 ------- 30 5.0 2.0 -1 8
- 0.137152 4 2 prune 80 ------- 30 4.0 2.0 -1 15
r 0.138576 4 2 cbr 536 ------- 0 0.1 1073741824.0 0 0
+ 0.138576 2 4 prune 80 ------- 30 2.0 4.0 -1 18
- 0.138576 2 4 prune 80 ------- 30 2.0 4.0 -1 18
r 0.138581 1 3 cbr 536 ------- 0 0.1 1073741824.0 3 3
+ 0.138581 3 1 prune 80 ------- 30 3.0 1.0 -1 19
- 0.138581 3 1 prune 80 ------- 30 3.0 1.0 -1 19
r 0.138581 1 4 cbr 536 ------- 0 0.1 1073741824.0 3 3
+ 0.138581 4 2 cbr 536 ------- 0 0.1 1073741824.0 3 3
- 0.138581 4 2 cbr 536 ------- 0 0.1 1073741824.0 3 3
r 0.138581 2 4 cbr 536 ------- 0 0.1 1073741824.0 3 3
+ 0.138581 4 2 prune 80 ------- 30 4.0 2.0 -1 20
r 0.138581 2 5 cbr 536 ------- 0 0.1 1073741824.0 3 3
+ 0.138581 5 2 prune 80 ------- 30 5.0 2.0 -1 21
- 0.138581 5 2 prune 80 ------- 30 5.0 2.0 -1 21
r 0.138587 0 1 cbr 536 ------- 0 0.1 1073741824.0 6 9
+ 0.138587 1 4 cbr 536 ------- 0 0.1 1073741824.0 6 9
- 0.138587 1 4 cbr 536 ------- 0 0.1 1073741824.0 6 9
r 0.138587 0 2 cbr 536 ------- 0 0.1 1073741824.0 6 9
+ 0.138587 2 4 cbr 536 ------- 0 0.1 1073741824.0 6 9
+ 0.138592 0 1 cbr 536 ------- 0 0.1 1073741824.0 9 22
- 0.138592 0 1 cbr 536 ------- 0 0.1 1073741824.0 9 22
+ 0.138592 0 2 cbr 536 ------- 0 0.1 1073741824.0 9 22
- 0.138592 0 2 cbr 536 ------- 0 0.1 1073741824.0 9 22
- 0.139003 2 4 cbr 536 ------- 0 0.1 1073741824.0 6 9
r 0.139003 4 2 prune 80 ------- 30 4.0 2.0 -1 7
+ 0.139003 2 0 prune 80 ------- 30 2.0 0.0 -1 23
- 0.139003 2 0 prune 80 ------- 30 2.0 0.0 -1 23
r 0.140432 3 1 prune 80 ------- 30 3.0 1.0 -1 10
r 0.140432 5 2 prune 80 ------- 30 5.0 2.0 -1 12
- 0.14144 4 2 prune 80 ------- 30 4.0 2.0 -1 20
r 0.142864 4 2 cbr 536 ------- 0 0.1 1073741824.0 1 1
+ 0.142864 2 4 prune 80 ------- 30 2.0 4.0 -1 24
- 0.142864 2 4 prune 80 ------- 30 2.0 4.0 -1 24
r 0.142869 1 3 cbr 536 ------- 0 0.1 1073741824.0 4 4
+ 0.142869 3 1 prune 80 ------- 30 3.0 1.0 -1 25
- 0.142869 3 1 prune 80 ------- 30 3.0 1.0 -1 25
r 0.142869 1 4 cbr 536 ------- 0 0.1 1073741824.0 4 4
+ 0.142869 4 2 cbr 536 ------- 0 0.1 1073741824.0 4 4
- 0.142869 4 2 cbr 536 ------- 0 0.1 1073741824.0 4 4
r 0.142869 2 4 cbr 536 ------- 0 0.1 1073741824.0 4 4
+ 0.142869 4 2 prune 80 ------- 30 4.0 2.0 -1 26
r 0.142869 2 5 cbr 536 ------- 0 0.1 1073741824.0 4 4
+ 0.142869 5 2 prune 80 ------- 30 5.0 2.0 -1 27
- 0.142869 5 2 prune 80 ------- 30 5.0 2.0 -1 27
r 0.142875 0 1 cbr 536 ------- 0 0.1 1073741824.0 7 13
+ 0.142875 1 4 cbr 536 ------- 0 0.1 1073741824.0 7 13
- 0.142875 1 4 cbr 536 ------- 0 0.1 1073741824.0 7 13
r 0.142875 0 2 cbr 536 ------- 0 0.1 1073741824.0 7 13
+ 0.142875 2 0 prune 80 ------- 30 2.0 0.0 -1 28
- 0.142875 2 0 prune 80 ------- 30 2.0 0.0 -1 28
+ 0.14288 0 1 cbr 536 ------- 0 0.1 1073741824.0 10 29
- 0.14288 0 1 cbr 536 ------- 0 0.1 1073741824.0 10 29
+ 0.14288 0 2 cbr 536 ------- 0 0.1 1073741824.0 10 29
- 0.14288 0 2 cbr 536 ------- 0 0.1 1073741824.0 10 29
r 0.143291 4 2 prune 80 ------- 30 4.0 2.0 -1 11
r 0.14472 3 1 prune 80 ------- 30 3.0 1.0 -1 14
r 0.14472 5 2 prune 80 ------- 30 5.0 2.0 -1 16
- 0.145728 4 2 prune 80 ------- 30 4.0 2.0 -1 26
r 0.147152 4 2 cbr 536 ------- 0 0.1 1073741824.0 2 2
+ 0.147152 2 4 prune 80 ------- 30 2.0 4.0 -1 30
- 0.147152 2 4 prune 80 ------- 30 2.0 4.0 -1 30
r 0.147157 1 3 cbr 536 ------- 0 0.1 1073741824.0 5 5
+ 0.147157 3 1 prune 80 ------- 30 3.0 1.0 -1 31
- 0.147157 3 1 prune 80 ------- 30 3.0 1.0 -1 31
r 0.147157 1 4 cbr 536 ------- 0 0.1 1073741824.0 5 5
+ 0.147157 4 2 cbr 536 ------- 0 0.1 1073741824.0 5 5
- 0.147157 4 2 cbr 536 ------- 0 0.1 1073741824.0 5 5
r 0.147157 2 4 cbr 536 ------- 0 0.1 1073741824.0 5 5
+ 0.147157 4 2 prune 80 ------- 30 4.0 2.0 -1 32
r 0.147157 2 5 cbr 536 ------- 0 0.1 1073741824.0 5 5
+ 0.147157 5 2 prune 80 ------- 30 5.0 2.0 -1 33
- 0.147157 5 2 prune 80 ------- 30 5.0 2.0 -1 33
r 0.147163 0 1 cbr 536 ------- 0 0.1 1073741824.0 8 17
+ 0.147163 1 4 cbr 536 ------- 0 0.1 1073741824.0 8 17
- 0.147163 1 4 cbr 536 ------- 0 0.1 1073741824.0 8 17
r 0.147163 0 2 cbr 536 ------- 0 0.1 1073741824.0 8 17
+ 0.147163 2 0 prune 80 ------- 30 2.0 0.0 -1 34
- 0.147163 2 0 prune 80 ------- 30 2.0 0.0 -1 34
+ 0.147168 0 1 cbr 536 ------- 0 0.1 1073741824.0 11 35
- 0.147168 0 1 cbr 536 ------- 0 0.1 1073741824.0 11 35
+ 0.147168 0 2 cbr 536 ------- 0 0.1 1073741824.0 11 35
- 0.147168 0 2 cbr 536 ------- 0 0.1 1073741824.0 11 35
r 0.147579 4 2 prune 80 ------- 30 4.0 2.0 -1 15
r 0.149003 2 4 prune 80 ------- 30 2.0 4.0 -1 18
+ 0.149003 4 1 prune 80 ------- 30 4.0 1.0 -1 36
- 0.149003 4 1 prune 80 ------- 30 4.0 1.0 -1 36
r 0.149008 3 1 prune 80 ------- 30 3.0 1.0 -1 19
r 0.149008 5 2 prune 80 ------- 30 5.0 2.0 -1 21
r 0.149429 2 0 prune 80 ------- 30 2.0 0.0 -1 23
- 0.150016 4 2 prune 80 ------- 30 4.0 2.0 -1 32
r 0.15144 4 2 cbr 536 ------- 0 0.1 1073741824.0 3 3
+ 0.15144 2 4 prune 80 ------- 30 2.0 4.0 -1 37
- 0.15144 2 4 prune 80 ------- 30 2.0 4.0 -1 37
r 0.151445 1 4 cbr 536 ------- 0 0.1 1073741824.0 6 9
+ 0.151445 4 1 prune 80 ------- 30 4.0 1.0 -1 38
- 0.151445 4 1 prune 80 ------- 30 4.0 1.0 -1 38
r 0.151451 0 1 cbr 536 ------- 0 0.1 1073741824.0 9 22
+ 0.151451 1 4 cbr 536 ------- 0 0.1 1073741824.0 9 22
- 0.151451 1 4 cbr 536 ------- 0 0.1 1073741824.0 9 22
r 0.151451 0 2 cbr 536 ------- 0 0.1 1073741824.0 9 22
+ 0.151451 2 0 prune 80 ------- 30 2.0 0.0 -1 39
- 0.151451 2 0 prune 80 ------- 30 2.0 0.0 -1 39
+ 0.151456 0 1 cbr 536 ------- 0 0.1 1073741824.0 12 40
- 0.151456 0 1 cbr 536 ------- 0 0.1 1073741824.0 12 40
r 0.151861 2 4 cbr 536 ------- 0 0.1 1073741824.0 6 9
+ 0.151861 4 2 prune 80 ------- 30 4.0 2.0 -1 41
- 0.151861 4 2 prune 80 ------- 30 4.0 2.0 -1 41
r 0.151867 4 2 prune 80 ------- 30 4.0 2.0 -1 20
r 0.153291 2 4 prune 80 ------- 30 2.0 4.0 -1 24
r 0.153296 3 1 prune 80 ------- 30 3.0 1.0 -1 25
r 0.153296 5 2 prune 80 ------- 30 5.0 2.0 -1 27
r 0.153301 2 0 prune 80 ------- 30 2.0 0.0 -1 28
r 0.155728 4 2 cbr 536 ------- 0 0.1 1073741824.0 4 4
+ 0.155728 2 4 prune 80 ------- 30 2.0 4.0 -1 42
- 0.155728 2 4 prune 80 ------- 30 2.0 4.0 -1 42
r 0.155733 1 4 cbr 536 ------- 0 0.1 1073741824.0 7 13
+ 0.155733 4 1 prune 80 ------- 30 4.0 1.0 -1 43
- 0.155733 4 1 prune 80 ------- 30 4.0 1.0 -1 43
r 0.155739 0 1 cbr 536 ------- 0 0.1 1073741824.0 10 29
+ 0.155739 1 4 cbr 536 ------- 0 0.1 1073741824.0 10 29
- 0.155739 1 4 cbr 536 ------- 0 0.1 1073741824.0 10 29
r 0.155739 0 2 cbr 536 ------- 0 0.1 1073741824.0 10 29
+ 0.155739 2 0 prune 80 ------- 30 2.0 0.0 -1 44
- 0.155739 2 0 prune 80 ------- 30 2.0 0.0 -1 44
+ 0.155744 0 1 cbr 536 ------- 0 0.1 1073741824.0 13 45
- 0.155744 0 1 cbr 536 ------- 0 0.1 1073741824.0 13 45
r 0.156155 4 2 prune 80 ------- 30 4.0 2.0 -1 26
r 0.157579 2 4 prune 80 ------- 30 2.0 4.0 -1 30
r 0.157584 3 1 prune 80 ------- 30 3.0 1.0 -1 31
r 0.157584 5 2 prune 80 ------- 30 5.0 2.0 -1 33
r 0.157589 2 0 prune 80 ------- 30 2.0 0.0 -1 34
r 0.159429 4 1 prune 80 ------- 30 4.0 1.0 -1 36
+ 0.159429 1 0 prune 80 ------- 30 1.0 0.0 -1 46
- 0.159429 1 0 prune 80 ------- 30 1.0 0.0 -1 46
r 0.160016 4 2 cbr 536 ------- 0 0.1 1073741824.0 5 5
+ 0.160016 2 4 prune 80 ------- 30 2.0 4.0 -1 47
- 0.160016 2 4 prune 80 ------- 30 2.0 4.0 -1 47
r 0.160021 1 4 cbr 536 ------- 0 0.1 1073741824.0 8 17
+ 0.160021 4 1 prune 80 ------- 30 4.0 1.0 -1 48
- 0.160021 4 1 prune 80 ------- 30 4.0 1.0 -1 48
r 0.160027 0 1 cbr 536 ------- 0 0.1 1073741824.0 11 35
+ 0.160027 1 0 prune 80 ------- 30 1.0 0.0 -1 49
- 0.160027 1 0 prune 80 ------- 30 1.0 0.0 -1 49
r 0.160027 0 2 cbr 536 ------- 0 0.1 1073741824.0 11 35
+ 0.160027 2 0 prune 80 ------- 30 2.0 0.0 -1 50
- 0.160027 2 0 prune 80 ------- 30 2.0 0.0 -1 50
+ 0.160032 0 1 cbr 536 ------- 0 0.1 1073741824.0 14 51
- 0.160032 0 1 cbr 536 ------- 0 0.1 1073741824.0 14 51
r 0.160443 4 2 prune 80 ------- 30 4.0 2.0 -1 32
r 0.161867 2 4 prune 80 ------- 30 2.0 4.0 -1 37
r 0.161872 4 1 prune 80 ------- 30 4.0 1.0 -1 38
r 0.161877 2 0 prune 80 ------- 30 2.0 0.0 -1 39
r 0.162288 4 2 prune 80 ------- 30 4.0 2.0 -1 41
r 0.164309 1 4 cbr 536 ------- 0 0.1 1073741824.0 9 22
+ 0.164309 4 1 prune 80 ------- 30 4.0 1.0 -1 52
- 0.164309 4 1 prune 80 ------- 30 4.0 1.0 -1 52
r 0.164315 0 1 cbr 536 ------- 0 0.1 1073741824.0 12 40
+ 0.164315 1 0 prune 80 ------- 30 1.0 0.0 -1 53
- 0.164315 1 0 prune 80 ------- 30 1.0 0.0 -1 53
+ 0.16432 0 1 cbr 536 ------- 0 0.1 1073741824.0 15 54
- 0.16432 0 1 cbr 536 ------- 0 0.1 1073741824.0 15 54
r 0.166155 2 4 prune 80 ------- 30 2.0 4.0 -1 42
r 0.16616 4 1 prune 80 ------- 30 4.0 1.0 -1 43
r 0.166165 2 0 prune 80 ------- 30 2.0 0.0 -1 44
r 0.168597 1 4 cbr 536 ------- 0 0.1 1073741824.0 10 29
+ 0.168597 4 1 prune 80 ------- 30 4.0 1.0 -1 55
- 0.168597 4 1 prune 80 ------- 30 4.0 1.0 -1 55
r 0.168603 0 1 cbr 536 ------- 0 0.1 1073741824.0 13 45
+ 0.168603 1 0 prune 80 ------- 30 1.0 0.0 -1 56
- 0.168603 1 0 prune 80 ------- 30 1.0 0.0 -1 56
+ 0.168608 0 1 cbr 536 ------- 0 0.1 1073741824.0 16 57
- 0.168608 0 1 cbr 536 ------- 0 0.1 1073741824.0 16 57
r 0.169856 1 0 prune 80 ------- 30 1.0 0.0 -1 46
r 0.170443 2 4 prune 80 ------- 30 2.0 4.0 -1 47
r 0.170448 4 1 prune 80 ------- 30 4.0 1.0 -1 48
r 0.170453 1 0 prune 80 ------- 30 1.0 0.0 -1 49
r 0.170453 2 0 prune 80 ------- 30 2.0 0.0 -1 50
r 0.172891 0 1 cbr 536 ------- 0 0.1 1073741824.0 14 51
+ 0.172891 1 0 prune 80 ------- 30 1.0 0.0 -1 58
- 0.172891 1 0 prune 80 ------- 30 1.0 0.0 -1 58
r 0.174736 4 1 prune 80 ------- 30 4.0 1.0 -1 52
r 0.174741 1 0 prune 80 ------- 30 1.0 0.0 -1 53
r 0.177179 0 1 cbr 536 ------- 0 0.1 1073741824.0 15 54
+ 0.177179 1 0 prune 80 ------- 30 1.0 0.0 -1 60
- 0.177179 1 0 prune 80 ------- 30 1.0 0.0 -1 60
r 0.179024 4 1 prune 80 ------- 30 4.0 1.0 -1 55
r 0.179029 1 0 prune 80 ------- 30 1.0 0.0 -1 56
r 0.181467 0 1 cbr 536 ------- 0 0.1 1073741824.0 16 57
+ 0.181467 1 0 prune 80 ------- 30 1.0 0.0 -1 62
- 0.181467 1 0 prune 80 ------- 30 1.0 0.0 -1 62
r 0.183317 1 0 prune 80 ------- 30 1.0 0.0 -1 58
r 0.187605 1 0 prune 80 ------- 30 1.0 0.0 -1 60
r 0.191893 1 0 prune 80 ------- 30 1.0 0.0 -1 62
v 0.2 eval {set sim_annotation {0.20000000000000001 3 join-group 1073741824}}
+ 0.2 3 1 graft 80 ------- 31 3.0 1.0 -1 68
- 0.2 3 1 graft 80 ------- 31 3.0 1.0 -1 68
r 0.210427 3 1 graft 80 ------- 31 3.0 1.0 -1 68
+ 0.210427 1 0 graft 80 ------- 31 1.0 0.0 -1 71
- 0.210427 1 0 graft 80 ------- 31 1.0 0.0 -1 71
r 0.220853 1 0 graft 80 ------- 31 1.0 0.0 -1 71
+ 0.224352 0 1 cbr 536 ------- 0 0.1 1073741824.0 29 75
- 0.224352 0 1 cbr 536 ------- 0 0.1 1073741824.0 29 75
+ 0.22864 0 1 cbr 536 ------- 0 0.1 1073741824.0 30 76
- 0.22864 0 1 cbr 536 ------- 0 0.1 1073741824.0 30 76
+ 0.232928 0 1 cbr 536 ------- 0 0.1 1073741824.0 31 77
- 0.232928 0 1 cbr 536 ------- 0 0.1 1073741824.0 31 77
r 0.237211 0 1 cbr 536 ------- 0 0.1 1073741824.0 29 75
+ 0.237211 1 3 cbr 536 ------- 0 0.1 1073741824.0 29 75
- 0.237211 1 3 cbr 536 ------- 0 0.1 1073741824.0 29 75
+ 0.237216 0 1 cbr 536 ------- 0 0.1 1073741824.0 32 78
- 0.237216 0 1 cbr 536 ------- 0 0.1 1073741824.0 32 78
r 0.241499 0 1 cbr 536 ------- 0 0.1 1073741824.0 30 76
+ 0.241499 1 3 cbr 536 ------- 0 0.1 1073741824.0 30 76
- 0.241499 1 3 cbr 536 ------- 0 0.1 1073741824.0 30 76
+ 0.241504 0 1 cbr 536 ------- 0 0.1 1073741824.0 33 79
- 0.241504 0 1 cbr 536 ------- 0 0.1 1073741824.0 33 79
r 0.245787 0 1 cbr 536 ------- 0 0.1 1073741824.0 31 77
+ 0.245787 1 3 cbr 536 ------- 0 0.1 1073741824.0 31 77
- 0.245787 1 3 cbr 536 ------- 0 0.1 1073741824.0 31 77
+ 0.245792 0 1 cbr 536 ------- 0 0.1 1073741824.0 34 80
- 0.245792 0 1 cbr 536 ------- 0 0.1 1073741824.0 34 80
r 0.250069 1 3 cbr 536 ------- 0 0.1 1073741824.0 29 75
r 0.250075 0 1 cbr 536 ------- 0 0.1 1073741824.0 32 78
+ 0.250075 1 3 cbr 536 ------- 0 0.1 1073741824.0 32 78
- 0.250075 1 3 cbr 536 ------- 0 0.1 1073741824.0 32 78
+ 0.25008 0 1 cbr 536 ------- 0 0.1 1073741824.0 35 81
- 0.25008 0 1 cbr 536 ------- 0 0.1 1073741824.0 35 81
r 0.254357 1 3 cbr 536 ------- 0 0.1 1073741824.0 30 76
r 0.254363 0 1 cbr 536 ------- 0 0.1 1073741824.0 33 79
+ 0.254363 1 3 cbr 536 ------- 0 0.1 1073741824.0 33 79
- 0.254363 1 3 cbr 536 ------- 0 0.1 1073741824.0 33 79
+ 0.254368 0 1 cbr 536 ------- 0 0.1 1073741824.0 36 82
- 0.254368 0 1 cbr 536 ------- 0 0.1 1073741824.0 36 82
r 0.258645 1 3 cbr 536 ------- 0 0.1 1073741824.0 31 77
r 0.258651 0 1 cbr 536 ------- 0 0.1 1073741824.0 34 80
+ 0.258651 1 3 cbr 536 ------- 0 0.1 1073741824.0 34 80
- 0.258651 1 3 cbr 536 ------- 0 0.1 1073741824.0 34 80
+ 0.258656 0 1 cbr 536 ------- 0 0.1 1073741824.0 37 83
- 0.258656 0 1 cbr 536 ------- 0 0.1 1073741824.0 37 83
r 0.262933 1 3 cbr 536 ------- 0 0.1 1073741824.0 32 78
r 0.262939 0 1 cbr 536 ------- 0 0.1 1073741824.0 35 81
+ 0.262939 1 3 cbr 536 ------- 0 0.1 1073741824.0 35 81
- 0.262939 1 3 cbr 536 ------- 0 0.1 1073741824.0 35 81
+ 0.262944 0 1 cbr 536 ------- 0 0.1 1073741824.0 38 84
- 0.262944 0 1 cbr 536 ------- 0 0.1 1073741824.0 38 84
r 0.267221 1 3 cbr 536 ------- 0 0.1 1073741824.0 33 79
r 0.267227 0 1 cbr 536 ------- 0 0.1 1073741824.0 36 82
+ 0.267227 1 3 cbr 536 ------- 0 0.1 1073741824.0 36 82
- 0.267227 1 3 cbr 536 ------- 0 0.1 1073741824.0 36 82
+ 0.267232 0 1 cbr 536 ------- 0 0.1 1073741824.0 39 85
- 0.267232 0 1 cbr 536 ------- 0 0.1 1073741824.0 39 85
r 0.271509 1 3 cbr 536 ------- 0 0.1 1073741824.0 34 80
r 0.271515 0 1 cbr 536 ------- 0 0.1 1073741824.0 37 83
+ 0.271515 1 3 cbr 536 ------- 0 0.1 1073741824.0 37 83
- 0.271515 1 3 cbr 536 ------- 0 0.1 1073741824.0 37 83
+ 0.27152 0 1 cbr 536 ------- 0 0.1 1073741824.0 40 86
- 0.27152 0 1 cbr 536 ------- 0 0.1 1073741824.0 40 86
r 0.275797 1 3 cbr 536 ------- 0 0.1 1073741824.0 35 81
r 0.275803 0 1 cbr 536 ------- 0 0.1 1073741824.0 38 84
+ 0.275803 1 3 cbr 536 ------- 0 0.1 1073741824.0 38 84
- 0.275803 1 3 cbr 536 ------- 0 0.1 1073741824.0 38 84
+ 0.275808 0 1 cbr 536 ------- 0 0.1 1073741824.0 41 87
- 0.275808 0 1 cbr 536 ------- 0 0.1 1073741824.0 41 87
r 0.280085 1 3 cbr 536 ------- 0 0.1 1073741824.0 36 82
r 0.280091 0 1 cbr 536 ------- 0 0.1 1073741824.0 39 85
+ 0.280091 1 3 cbr 536 ------- 0 0.1 1073741824.0 39 85
- 0.280091 1 3 cbr 536 ------- 0 0.1 1073741824.0 39 85
+ 0.280096 0 1 cbr 536 ------- 0 0.1 1073741824.0 42 88
- 0.280096 0 1 cbr 536 ------- 0 0.1 1073741824.0 42 88
r 0.284373 1 3 cbr 536 ------- 0 0.1 1073741824.0 37 83
r 0.284379 0 1 cbr 536 ------- 0 0.1 1073741824.0 40 86
+ 0.284379 1 3 cbr 536 ------- 0 0.1 1073741824.0 40 86
- 0.284379 1 3 cbr 536 ------- 0 0.1 1073741824.0 40 86
+ 0.284384 0 1 cbr 536 ------- 0 0.1 1073741824.0 43 89
- 0.284384 0 1 cbr 536 ------- 0 0.1 1073741824.0 43 89
r 0.288661 1 3 cbr 536 ------- 0 0.1 1073741824.0 38 84
r 0.288667 0 1 cbr 536 ------- 0 0.1 1073741824.0 41 87
+ 0.288667 1 3 cbr 536 ------- 0 0.1 1073741824.0 41 87
- 0.288667 1 3 cbr 536 ------- 0 0.1 1073741824.0 41 87
+ 0.288672 0 1 cbr 536 ------- 0 0.1 1073741824.0 44 90
- 0.288672 0 1 cbr 536 ------- 0 0.1 1073741824.0 44 90
r 0.292949 1 3 cbr 536 ------- 0 0.1 1073741824.0 39 85
r 0.292955 0 1 cbr 536 ------- 0 0.1 1073741824.0 42 88
+ 0.292955 1 3 cbr 536 ------- 0 0.1 1073741824.0 42 88
- 0.292955 1 3 cbr 536 ------- 0 0.1 1073741824.0 42 88
+ 0.29296 0 1 cbr 536 ------- 0 0.1 1073741824.0 45 91
- 0.29296 0 1 cbr 536 ------- 0 0.1 1073741824.0 45 91
r 0.297237 1 3 cbr 536 ------- 0 0.1 1073741824.0 40 86
r 0.297243 0 1 cbr 536 ------- 0 0.1 1073741824.0 43 89
+ 0.297243 1 3 cbr 536 ------- 0 0.1 1073741824.0 43 89
- 0.297243 1 3 cbr 536 ------- 0 0.1 1073741824.0 43 89
+ 0.297248 0 1 cbr 536 ------- 0 0.1 1073741824.0 46 92
- 0.297248 0 1 cbr 536 ------- 0 0.1 1073741824.0 46 92
r 0.301525 1 3 cbr 536 ------- 0 0.1 1073741824.0 41 87
r 0.301531 0 1 cbr 536 ------- 0 0.1 1073741824.0 44 90
+ 0.301531 1 3 cbr 536 ------- 0 0.1 1073741824.0 44 90
- 0.301531 1 3 cbr 536 ------- 0 0.1 1073741824.0 44 90
+ 0.301536 0 1 cbr 536 ------- 0 0.1 1073741824.0 47 93
- 0.301536 0 1 cbr 536 ------- 0 0.1 1073741824.0 47 93
r 0.305813 1 3 cbr 536 ------- 0 0.1 1073741824.0 42 88
r 0.305819 0 1 cbr 536 ------- 0 0.1 1073741824.0 45 91
+ 0.305819 1 3 cbr 536 ------- 0 0.1 1073741824.0 45 91
- 0.305819 1 3 cbr 536 ------- 0 0.1 1073741824.0 45 91
+ 0.305824 0 1 cbr 536 ------- 0 0.1 1073741824.0 48 94
- 0.305824 0 1 cbr 536 ------- 0 0.1 1073741824.0 48 94
r 0.310101 1 3 cbr 536 ------- 0 0.1 1073741824.0 43 89
r 0.310107 0 1 cbr 536 ------- 0 0.1 1073741824.0 46 92
+ 0.310107 1 3 cbr 536 ------- 0 0.1 1073741824.0 46 92
- 0.310107 1 3 cbr 536 ------- 0 0.1 1073741824.0 46 92
+ 0.310112 0 1 cbr 536 ------- 0 0.1 1073741824.0 49 95
- 0.310112 0 1 cbr 536 ------- 0 0.1 1073741824.0 49 95
r 0.314389 1 3 cbr 536 ------- 0 0.1 1073741824.0 44 90
r 0.314395 0 1 cbr 536 ------- 0 0.1 1073741824.0 47 93
+ 0.314395 1 3 cbr 536 ------- 0 0.1 1073741824.0 47 93
- 0.314395 1 3 cbr 536 ------- 0 0.1 1073741824.0 47 93
+ 0.3144 0 1 cbr 536 ------- 0 0.1 1073741824.0 50 96
- 0.3144 0 1 cbr 536 ------- 0 0.1 1073741824.0 50 96
r 0.318677 1 3 cbr 536 ------- 0 0.1 1073741824.0 45 91
r 0.318683 0 1 cbr 536 ------- 0 0.1 1073741824.0 48 94
+ 0.318683 1 3 cbr 536 ------- 0 0.1 1073741824.0 48 94
- 0.318683 1 3 cbr 536 ------- 0 0.1 1073741824.0 48 94
+ 0.318688 0 1 cbr 536 ------- 0 0.1 1073741824.0 51 97
- 0.318688 0 1 cbr 536 ------- 0 0.1 1073741824.0 51 97
r 0.322965 1 3 cbr 536 ------- 0 0.1 1073741824.0 46 92
r 0.322971 0 1 cbr 536 ------- 0 0.1 1073741824.0 49 95
+ 0.322971 1 3 cbr 536 ------- 0 0.1 1073741824.0 49 95
- 0.322971 1 3 cbr 536 ------- 0 0.1 1073741824.0 49 95
+ 0.322976 0 1 cbr 536 ------- 0 0.1 1073741824.0 52 98
- 0.322976 0 1 cbr 536 ------- 0 0.1 1073741824.0 52 98
r 0.327253 1 3 cbr 536 ------- 0 0.1 1073741824.0 47 93
r 0.327259 0 1 cbr 536 ------- 0 0.1 1073741824.0 50 96
+ 0.327259 1 3 cbr 536 ------- 0 0.1 1073741824.0 50 96
- 0.327259 1 3 cbr 536 ------- 0 0.1 1073741824.0 50 96
+ 0.327264 0 1 cbr 536 ------- 0 0.1 1073741824.0 53 99
- 0.327264 0 1 cbr 536 ------- 0 0.1 1073741824.0 53 99
r 0.331541 1 3 cbr 536 ------- 0 0.1 1073741824.0 48 94
r 0.331547 0 1 cbr 536 ------- 0 0.1 1073741824.0 51 97
+ 0.331547 1 3 cbr 536 ------- 0 0.1 1073741824.0 51 97
- 0.331547 1 3 cbr 536 ------- 0 0.1 1073741824.0 51 97
+ 0.331552 0 1 cbr 536 ------- 0 0.1 1073741824.0 54 100
- 0.331552 0 1 cbr 536 ------- 0 0.1 1073741824.0 54 100
r 0.335829 1 3 cbr 536 ------- 0 0.1 1073741824.0 49 95
r 0.335835 0 1 cbr 536 ------- 0 0.1 1073741824.0 52 98
+ 0.335835 1 3 cbr 536 ------- 0 0.1 1073741824.0 52 98
- 0.335835 1 3 cbr 536 ------- 0 0.1 1073741824.0 52 98
+ 0.33584 0 1 cbr 536 ------- 0 0.1 1073741824.0 55 101
- 0.33584 0 1 cbr 536 ------- 0 0.1 1073741824.0 55 101
r 0.340117 1 3 cbr 536 ------- 0 0.1 1073741824.0 50 96
r 0.340123 0 1 cbr 536 ------- 0 0.1 1073741824.0 53 99
+ 0.340123 1 3 cbr 536 ------- 0 0.1 1073741824.0 53 99
- 0.340123 1 3 cbr 536 ------- 0 0.1 1073741824.0 53 99
+ 0.340128 0 1 cbr 536 ------- 0 0.1 1073741824.0 56 102
- 0.340128 0 1 cbr 536 ------- 0 0.1 1073741824.0 56 102
r 0.344405 1 3 cbr 536 ------- 0 0.1 1073741824.0 51 97
r 0.344411 0 1 cbr 536 ------- 0 0.1 1073741824.0 54 100
+ 0.344411 1 3 cbr 536 ------- 0 0.1 1073741824.0 54 100
- 0.344411 1 3 cbr 536 ------- 0 0.1 1073741824.0 54 100
+ 0.344416 0 1 cbr 536 ------- 0 0.1 1073741824.0 57 103
- 0.344416 0 1 cbr 536 ------- 0 0.1 1073741824.0 57 103
r 0.348693 1 3 cbr 536 ------- 0 0.1 1073741824.0 52 98
r 0.348699 0 1 cbr 536 ------- 0 0.1 1073741824.0 55 101
+ 0.348699 1 3 cbr 536 ------- 0 0.1 1073741824.0 55 101
- 0.348699 1 3 cbr 536 ------- 0 0.1 1073741824.0 55 101
+ 0.348704 0 1 cbr 536 ------- 0 0.1 1073741824.0 58 104
- 0.348704 0 1 cbr 536 ------- 0 0.1 1073741824.0 58 104
r 0.352981 1 3 cbr 536 ------- 0 0.1 1073741824.0 53 99
r 0.352987 0 1 cbr 536 ------- 0 0.1 1073741824.0 56 102
+ 0.352987 1 3 cbr 536 ------- 0 0.1 1073741824.0 56 102
- 0.352987 1 3 cbr 536 ------- 0 0.1 1073741824.0 56 102
+ 0.352992 0 1 cbr 536 ------- 0 0.1 1073741824.0 59 105
- 0.352992 0 1 cbr 536 ------- 0 0.1 1073741824.0 59 105
r 0.357269 1 3 cbr 536 ------- 0 0.1 1073741824.0 54 100
r 0.357275 0 1 cbr 536 ------- 0 0.1 1073741824.0 57 103
+ 0.357275 1 3 cbr 536 ------- 0 0.1 1073741824.0 57 103
- 0.357275 1 3 cbr 536 ------- 0 0.1 1073741824.0 57 103
+ 0.35728 0 1 cbr 536 ------- 0 0.1 1073741824.0 60 106
- 0.35728 0 1 cbr 536 ------- 0 0.1 1073741824.0 60 106
r 0.361557 1 3 cbr 536 ------- 0 0.1 1073741824.0 55 101
r 0.361563 0 1 cbr 536 ------- 0 0.1 1073741824.0 58 104
+ 0.361563 1 3 cbr 536 ------- 0 0.1 1073741824.0 58 104
- 0.361563 1 3 cbr 536 ------- 0 0.1 1073741824.0 58 104
+ 0.361568 0 1 cbr 536 ------- 0 0.1 1073741824.0 61 107
- 0.361568 0 1 cbr 536 ------- 0 0.1 1073741824.0 61 107
r 0.365845 1 3 cbr 536 ------- 0 0.1 1073741824.0 56 102
r 0.365851 0 1 cbr 536 ------- 0 0.1 1073741824.0 59 105
+ 0.365851 1 3 cbr 536 ------- 0 0.1 1073741824.0 59 105
- 0.365851 1 3 cbr 536 ------- 0 0.1 1073741824.0 59 105
+ 0.365856 0 1 cbr 536 ------- 0 0.1 1073741824.0 62 108
- 0.365856 0 1 cbr 536 ------- 0 0.1 1073741824.0 62 108
r 0.370133 1 3 cbr 536 ------- 0 0.1 1073741824.0 57 103
r 0.370139 0 1 cbr 536 ------- 0 0.1 1073741824.0 60 106
+ 0.370139 1 3 cbr 536 ------- 0 0.1 1073741824.0 60 106
- 0.370139 1 3 cbr 536 ------- 0 0.1 1073741824.0 60 106
+ 0.370144 0 1 cbr 536 ------- 0 0.1 1073741824.0 63 109
- 0.370144 0 1 cbr 536 ------- 0 0.1 1073741824.0 63 109
r 0.374421 1 3 cbr 536 ------- 0 0.1 1073741824.0 58 104
r 0.374427 0 1 cbr 536 ------- 0 0.1 1073741824.0 61 107
+ 0.374427 1 3 cbr 536 ------- 0 0.1 1073741824.0 61 107
- 0.374427 1 3 cbr 536 ------- 0 0.1 1073741824.0 61 107
+ 0.374432 0 1 cbr 536 ------- 0 0.1 1073741824.0 64 110
- 0.374432 0 1 cbr 536 ------- 0 0.1 1073741824.0 64 110
r 0.378709 1 3 cbr 536 ------- 0 0.1 1073741824.0 59 105
r 0.378715 0 1 cbr 536 ------- 0 0.1 1073741824.0 62 108
+ 0.378715 1 3 cbr 536 ------- 0 0.1 1073741824.0 62 108
- 0.378715 1 3 cbr 536 ------- 0 0.1 1073741824.0 62 108
+ 0.37872 0 1 cbr 536 ------- 0 0.1 1073741824.0 65 111
- 0.37872 0 1 cbr 536 ------- 0 0.1 1073741824.0 65 111
r 0.382997 1 3 cbr 536 ------- 0 0.1 1073741824.0 60 106
r 0.383003 0 1 cbr 536 ------- 0 0.1 1073741824.0 63 109
+ 0.383003 1 3 cbr 536 ------- 0 0.1 1073741824.0 63 109
- 0.383003 1 3 cbr 536 ------- 0 0.1 1073741824.0 63 109
+ 0.383008 0 1 cbr 536 ------- 0 0.1 1073741824.0 66 112
- 0.383008 0 1 cbr 536 ------- 0 0.1 1073741824.0 66 112
r 0.387285 1 3 cbr 536 ------- 0 0.1 1073741824.0 61 107
r 0.387291 0 1 cbr 536 ------- 0 0.1 1073741824.0 64 110
+ 0.387291 1 3 cbr 536 ------- 0 0.1 1073741824.0 64 110
- 0.387291 1 3 cbr 536 ------- 0 0.1 1073741824.0 64 110
+ 0.387296 0 1 cbr 536 ------- 0 0.1 1073741824.0 67 113
- 0.387296 0 1 cbr 536 ------- 0 0.1 1073741824.0 67 113
r 0.391573 1 3 cbr 536 ------- 0 0.1 1073741824.0 62 108
r 0.391579 0 1 cbr 536 ------- 0 0.1 1073741824.0 65 111
+ 0.391579 1 3 cbr 536 ------- 0 0.1 1073741824.0 65 111
- 0.391579 1 3 cbr 536 ------- 0 0.1 1073741824.0 65 111