+ 0.1 3 1 encap 556 ------- 32 3.2 0.1 -1 1
- 0.1 3 1 encap 556 ------- 32 3.2 0.1 -1 1
r 0.112965 3 1 encap 556 ------- 32 3.2 0.1 -1 1
+ 0.112965 1 0 encap 556 ------- 32 3.2 0.1 -1 1
- 0.112965 1 0 encap 556 ------- 32 3.2 0.1 -1 1
r 0.125931 1 0 encap 556 ------- 32 3.2 0.1 -1 1
+ 0.13 3 1 encap 556 ------- 32 3.2 0.1 -1 3
- 0.13 3 1 encap 556 ------- 32 3.2 0.1 -1 3
r 0.142965 3 1 encap 556 ------- 32 3.2 0.1 -1 3
+ 0.142965 1 0 encap 556 ------- 32 3.2 0.1 -1 3
- 0.142965 1 0 encap 556 ------- 32 3.2 0.1 -1 3
r 0.155931 1 0 encap 556 ------- 32 3.2 0.1 -1 3
+ 0.16 3 1 encap 556 ------- 32 3.2 0.1 -1 5
- 0.16 3 1 encap 556 ------- 32 3.2 0.1 -1 5
r 0.172965 3 1 encap 556 ------- 32 3.2 0.1 -1 5
+ 0.172965 1 0 encap 556 ------- 32 3.2 0.1 -1 5
- 0.172965 1 0 encap 556 ------- 32 3.2 0.1 -1 5
r 0.185931 1 0 encap 556 ------- 32 3.2 0.1 -1 5
+ 0.19 3 1 encap 556 ------- 32 3.2 0.1 -1 7
- 0.19 3 1 encap 556 ------- 32 3.2 0.1 -1 7
+ 0.2 2 0 graft 80 ------- 31 2.1 0.0 -1 8
- 0.2 2 0 graft 80 ------- 31 2.1 0.0 -1 8
v 0.2 eval {set sim_annotation {0.20000000000000001 2 join-group 1073741824}}
r 0.202965 3 1 encap 556 ------- 32 3.2 0.1 -1 7
+ 0.202965 1 0 encap 556 ------- 32 3.2 0.1 -1 7
- 0.202965 1 0 encap 556 ------- 32 3.2 0.1 -1 7
r 0.210427 2 0 graft 80 ------- 31 2.1 0.0 -1 8
r 0.215931 1 0 encap 556 ------- 32 3.2 0.1 -1 7
+ 0.215931 0 2 cbr 536 ------- 0 3.0 1073741824.0 3 6
- 0.215931 0 2 cbr 536 ------- 0 3.0 1073741824.0 3 6
+ 0.22 3 1 encap 556 ------- 32 3.2 0.1 -1 10
- 0.22 3 1 encap 556 ------- 32 3.2 0.1 -1 10
r 0.228789 0 2 cbr 536 ------- 0 3.0 1073741824.0 3 6
r 0.232965 3 1 encap 556 ------- 32 3.2 0.1 -1 10
+ 0.232965 1 0 encap 556 ------- 32 3.2 0.1 -1 10
- 0.232965 1 0 encap 556 ------- 32 3.2 0.1 -1 10
r 0.245931 1 0 encap 556 ------- 32 3.2 0.1 -1 10
+ 0.245931 0 2 cbr 536 ------- 0 3.0 1073741824.0 4 9
- 0.245931 0 2 cbr 536 ------- 0 3.0 1073741824.0 4 9
+ 0.25 3 1 encap 556 ------- 32 3.2 0.1 -1 12
- 0.25 3 1 encap 556 ------- 32 3.2 0.1 -1 12
r 0.258789 0 2 cbr 536 ------- 0 3.0 1073741824.0 4 9
r 0.262965 3 1 encap 556 ------- 32 3.2 0.1 -1 12
+ 0.262965 1 0 encap 556 ------- 32 3.2 0.1 -1 12
- 0.262965 1 0 encap 556 ------- 32 3.2 0.1 -1 12
r 0.275931 1 0 encap 556 ------- 32 3.2 0.1 -1 12
+ 0.275931 0 2 cbr 536 ------- 0 3.0 1073741824.0 5 11
- 0.275931 0 2 cbr 536 ------- 0 3.0 1073741824.0 5 11
+ 0.28 3 1 encap 556 ------- 32 3.2 0.1 -1 14
- 0.28 3 1 encap 556 ------- 32 3.2 0.1 -1 14
r 0.288789 0 2 cbr 536 ------- 0 3.0 1073741824.0 5 11
r 0.292965 3 1 encap 556 ------- 32 3.2 0.1 -1 14
+ 0.292965 1 0 encap 556 ------- 32 3.2 0.1 -1 14
- 0.292965 1 0 encap 556 ------- 32 3.2 0.1 -1 14
r 0.305931 1 0 encap 556 ------- 32 3.2 0.1 -1 14
+ 0.305931 0 2 cbr 536 ------- 0 3.0 1073741824.0 6 13
- 0.305931 0 2 cbr 536 ------- 0 3.0 1073741824.0 6 13
+ 0.31 3 1 encap 556 ------- 32 3.2 0.1 -1 16
- 0.31 3 1 encap 556 ------- 32 3.2 0.1 -1 16
r 0.318789 0 2 cbr 536 ------- 0 3.0 1073741824.0 6 13
r 0.322965 3 1 encap 556 ------- 32 3.2 0.1 -1 16
+ 0.322965 1 0 encap 556 ------- 32 3.2 0.1 -1 16
- 0.322965 1 0 encap 556 ------- 32 3.2 0.1 -1 16
r 0.335931 1 0 encap 556 ------- 32 3.2 0.1 -1 16
+ 0.335931 0 2 cbr 536 ------- 0 3.0 1073741824.0 7 15
- 0.335931 0 2 cbr 536 ------- 0 3.0 1073741824.0 7 15
+ 0.34 3 1 encap 556 ------- 32 3.2 0.1 -1 18
- 0.34 3 1 encap 556 ------- 32 3.2 0.1 -1 18
r 0.348789 0 2 cbr 536 ------- 0 3.0 1073741824.0 7 15
r 0.352965 3 1 encap 556 ------- 32 3.2 0.1 -1 18
+ 0.352965 1 0 encap 556 ------- 32 3.2 0.1 -1 18
- 0.352965 1 0 encap 556 ------- 32 3.2 0.1 -1 18
r 0.365931 1 0 encap 556 ------- 32 3.2 0.1 -1 18
+ 0.365931 0 2 cbr 536 ------- 0 3.0 1073741824.0 8 17
- 0.365931 0 2 cbr 536 ------- 0 3.0 1073741824.0 8 17
+ 0.37 3 1 encap 556 ------- 32 3.2 0.1 -1 20
- 0.37 3 1 encap 556 ------- 32 3.2 0.1 -1 20
r 0.378789 0 2 cbr 536 ------- 0 3.0 1073741824.0 8 17
r 0.382965 3 1 encap 556 ------- 32 3.2 0.1 -1 20
+ 0.382965 1 0 encap 556 ------- 32 3.2 0.1 -1 20
- 0.382965 1 0 encap 556 ------- 32 3.2 0.1 -1 20
r 0.395931 1 0 encap 556 ------- 32 3.2 0.1 -1 20
+ 0.395931 0 2 cbr 536 ------- 0 3.0 1073741824.0 9 19
- 0.395931 0 2 cbr 536 ------- 0 3.0 1073741824.0 9 19
+ 0.4 4 1 graft 80 ------- 31 4.1 1.0 -1 21
- 0.4 4 1 graft 80 ------- 31 4.1 1.0 -1 21
v 0.4 eval {set sim_annotation {0.40000000000000002 4 join-group 1073741824}}
+ 0.4 3 1 encap 556 ------- 32 3.2 0.1 -1 23
- 0.4 3 1 encap 556 ------- 32 3.2 0.1 -1 23
r 0.408789 0 2 cbr 536 ------- 0 3.0 1073741824.0 9 19
r 0.410427 4 1 graft 80 ------- 31 4.1 1.0 -1 21
+ 0.410427 1 0 graft 80 ------- 31 1.0 0.0 -1 24
- 0.410427 1 0 graft 80 ------- 31 1.0 0.0 -1 24
r 0.412965 3 1 encap 556 ------- 32 3.2 0.1 -1 23
+ 0.412965 1 0 encap 556 ------- 32 3.2 0.1 -1 23
- 0.412965 1 0 encap 556 ------- 32 3.2 0.1 -1 23
r 0.420853 1 0 graft 80 ------- 31 1.0 0.0 -1 24
r 0.425931 1 0 encap 556 ------- 32 3.2 0.1 -1 23
+ 0.425931 0 2 cbr 536 ------- 0 3.0 1073741824.0 10 22
- 0.425931 0 2 cbr 536 ------- 0 3.0 1073741824.0 10 22
+ 0.425931 0 1 cbr 536 ------- 0 3.0 1073741824.0 10 22
- 0.425931 0 1 cbr 536 ------- 0 3.0 1073741824.0 10 22
+ 0.43 3 1 encap 556 ------- 32 3.2 0.1 -1 26
- 0.43 3 1 encap 556 ------- 32 3.2 0.1 -1 26
r 0.438789 0 2 cbr 536 ------- 0 3.0 1073741824.0 10 22
r 0.438789 0 1 cbr 536 ------- 0 3.0 1073741824.0 10 22
+ 0.438789 1 4 cbr 536 ------- 0 3.0 1073741824.0 10 22
- 0.438789 1 4 cbr 536 ------- 0 3.0 1073741824.0 10 22
r 0.442965 3 1 encap 556 ------- 32 3.2 0.1 -1 26
+ 0.442965 1 0 encap 556 ------- 32 3.2 0.1 -1 26
- 0.442965 1 0 encap 556 ------- 32 3.2 0.1 -1 26
r 0.451648 1 4 cbr 536 ------- 0 3.0 1073741824.0 10 22
r 0.455931 1 0 encap 556 ------- 32 3.2 0.1 -1 26
+ 0.455931 0 2 cbr 536 ------- 0 3.0 1073741824.0 11 25
- 0.455931 0 2 cbr 536 ------- 0 3.0 1073741824.0 11 25
+ 0.455931 0 1 cbr 536 ------- 0 3.0 1073741824.0 11 25
- 0.455931 0 1 cbr 536 ------- 0 3.0 1073741824.0 11 25
+ 0.46 3 1 encap 556 ------- 32 3.2 0.1 -1 28
- 0.46 3 1 encap 556 ------- 32 3.2 0.1 -1 28
r 0.468789 0 2 cbr 536 ------- 0 3.0 1073741824.0 11 25
r 0.468789 0 1 cbr 536 ------- 0 3.0 1073741824.0 11 25
+ 0.468789 1 4 cbr 536 ------- 0 3.0 1073741824.0 11 25
- 0.468789 1 4 cbr 536 ------- 0 3.0 1073741824.0 11 25
r 0.472965 3 1 encap 556 ------- 32 3.2 0.1 -1 28
+ 0.472965 1 0 encap 556 ------- 32 3.2 0.1 -1 28
- 0.472965 1 0 encap 556 ------- 32 3.2 0.1 -1 28
r 0.481648 1 4 cbr 536 ------- 0 3.0 1073741824.0 11 25
r 0.485931 1 0 encap 556 ------- 32 3.2 0.1 -1 28
+ 0.485931 0 2 cbr 536 ------- 0 3.0 1073741824.0 12 27
- 0.485931 0 2 cbr 536 ------- 0 3.0 1073741824.0 12 27
+ 0.485931 0 1 cbr 536 ------- 0 3.0 1073741824.0 12 27
- 0.485931 0 1 cbr 536 ------- 0 3.0 1073741824.0 12 27
+ 0.49 3 1 encap 556 ------- 32 3.2 0.1 -1 30
- 0.49 3 1 encap 556 ------- 32 3.2 0.1 -1 30
r 0.498789 0 2 cbr 536 ------- 0 3.0 1073741824.0 12 27
r 0.498789 0 1 cbr 536 ------- 0 3.0 1073741824.0 12 27
+ 0.498789 1 4 cbr 536 ------- 0 3.0 1073741824.0 12 27
- 0.498789 1 4 cbr 536 ------- 0 3.0 1073741824.0 12 27
r 0.502965 3 1 encap 556 ------- 32 3.2 0.1 -1 30
+ 0.502965 1 0 encap 556 ------- 32 3.2 0.1 -1 30
- 0.502965 1 0 encap 556 ------- 32 3.2 0.1 -1 30
r 0.511648 1 4 cbr 536 ------- 0 3.0 1073741824.0 12 27
r 0.515931 1 0 encap 556 ------- 32 3.2 0.1 -1 30
+ 0.515931 0 2 cbr 536 ------- 0 3.0 1073741824.0 13 29
- 0.515931 0 2 cbr 536 ------- 0 3.0 1073741824.0 13 29
+ 0.515931 0 1 cbr 536 ------- 0 3.0 1073741824.0 13 29
- 0.515931 0 1 cbr 536 ------- 0 3.0 1073741824.0 13 29
+ 0.52 3 1 encap 556 ------- 32 3.2 0.1 -1 32
- 0.52 3 1 encap 556 ------- 32 3.2 0.1 -1 32
r 0.528789 0 2 cbr 536 ------- 0 3.0 1073741824.0 13 29
r 0.528789 0 1 cbr 536 ------- 0 3.0 1073741824.0 13 29
+ 0.528789 1 4 cbr 536 ------- 0 3.0 1073741824.0 13 29
- 0.528789 1 4 cbr 536 ------- 0 3.0 1073741824.0 13 29
r 0.532965 3 1 encap 556 ------- 32 3.2 0.1 -1 32
+ 0.532965 1 0 encap 556 ------- 32 3.2 0.1 -1 32
- 0.532965 1 0 encap 556 ------- 32 3.2 0.1 -1 32
r 0.541648 1 4 cbr 536 ------- 0 3.0 1073741824.0 13 29
r 0.545931 1 0 encap 556 ------- 32 3.2 0.1 -1 32
+ 0.545931 0 2 cbr 536 ------- 0 3.0 1073741824.0 14 31
- 0.545931 0 2 cbr 536 ------- 0 3.0 1073741824.0 14 31
+ 0.545931 0 1 cbr 536 ------- 0 3.0 1073741824.0 14 31
- 0.545931 0 1 cbr 536 ------- 0 3.0 1073741824.0 14 31
+ 0.55 3 1 encap 556 ------- 32 3.2 0.1 -1 34
- 0.55 3 1 encap 556 ------- 32 3.2 0.1 -1 34
r 0.558789 0 2 cbr 536 ------- 0 3.0 1073741824.0 14 31
r 0.558789 0 1 cbr 536 ------- 0 3.0 1073741824.0 14 31
+ 0.558789 1 4 cbr 536 ------- 0 3.0 1073741824.0 14 31
- 0.558789 1 4 cbr 536 ------- 0 3.0 1073741824.0 14 31
r 0.562965 3 1 encap 556 ------- 32 3.2 0.1 -1 34
+ 0.562965 1 0 encap 556 ------- 32 3.2 0.1 -1 34
- 0.562965 1 0 encap 556 ------- 32 3.2 0.1 -1 34
r 0.571648 1 4 cbr 536 ------- 0 3.0 1073741824.0 14 31
r 0.575931 1 0 encap 556 ------- 32 3.2 0.1 -1 34
+ 0.575931 0 2 cbr 536 ------- 0 3.0 1073741824.0 15 33
- 0.575931 0 2 cbr 536 ------- 0 3.0 1073741824.0 15 33
+ 0.575931 0 1 cbr 536 ------- 0 3.0 1073741824.0 15 33
- 0.575931 0 1 cbr 536 ------- 0 3.0 1073741824.0 15 33
+ 0.58 3 1 encap 556 ------- 32 3.2 0.1 -1 36
- 0.58 3 1 encap 556 ------- 32 3.2 0.1 -1 36
r 0.588789 0 2 cbr 536 ------- 0 3.0 1073741824.0 15 33
r 0.588789 0 1 cbr 536 ------- 0 3.0 1073741824.0 15 33
+ 0.588789 1 4 cbr 536 ------- 0 3.0 1073741824.0 15 33
- 0.588789 1 4 cbr 536 ------- 0 3.0 1073741824.0 15 33
r 0.592965 3 1 encap 556 ------- 32 3.2 0.1 -1 36
+ 0.592965 1 0 encap 556 ------- 32 3.2 0.1 -1 36
- 0.592965 1 0 encap 556 ------- 32 3.2 0.1 -1 36
v 0.6 eval {set sim_annotation {0.59999999999999998 2 leave-group 1073741824}}
+ 0.6 2 0 prune 80 ------- 30 2.1 0.0 -1 37
- 0.6 2 0 prune 80 ------- 30 2.1 0.0 -1 37
r 0.601648 1 4 cbr 536 ------- 0 3.0 1073741824.0 15 33
r 0.605931 1 0 encap 556 ------- 32 3.2 0.1 -1 36
+ 0.605931 0 2 cbr 536 ------- 0 3.0 1073741824.0 16 35
- 0.605931 0 2 cbr 536 ------- 0 3.0 1073741824.0 16 35
+ 0.605931 0 1 cbr 536 ------- 0 3.0 1073741824.0 16 35
- 0.605931 0 1 cbr 536 ------- 0 3.0 1073741824.0 16 35
+ 0.61 3 1 encap 556 ------- 32 3.2 0.1 -1 39
- 0.61 3 1 encap 556 ------- 32 3.2 0.1 -1 39
r 0.610427 2 0 prune 80 ------- 30 2.1 0.0 -1 37
r 0.618789 0 2 cbr 536 ------- 0 3.0 1073741824.0 16 35
+ 0.618789 2 0 prune 80 ------- 30 2.1 0.0 -1 40
- 0.618789 2 0 prune 80 ------- 30 2.1 0.0 -1 40
r 0.618789 0 1 cbr 536 ------- 0 3.0 1073741824.0 16 35
+ 0.618789 1 4 cbr 536 ------- 0 3.0 1073741824.0 16 35
- 0.618789 1 4 cbr 536 ------- 0 3.0 1073741824.0 16 35
r 0.622965 3 1 encap 556 ------- 32 3.2 0.1 -1 39
+ 0.622965 1 0 encap 556 ------- 32 3.2 0.1 -1 39
- 0.622965 1 0 encap 556 ------- 32 3.2 0.1 -1 39
r 0.629216 2 0 prune 80 ------- 30 2.1 0.0 -1 40
r 0.631648 1 4 cbr 536 ------- 0 3.0 1073741824.0 16 35
r 0.635931 1 0 encap 556 ------- 32 3.2 0.1 -1 39
+ 0.635931 0 1 cbr 536 ------- 0 3.0 1073741824.0 17 38
- 0.635931 0 1 cbr 536 ------- 0 3.0 1073741824.0 17 38
+ 0.64 3 1 encap 556 ------- 32 3.2 0.1 -1 42
- 0.64 3 1 encap 556 ------- 32 3.2 0.1 -1 42
r 0.648789 0 1 cbr 536 ------- 0 3.0 1073741824.0 17 38
+ 0.648789 1 4 cbr 536 ------- 0 3.0 1073741824.0 17 38
- 0.648789 1 4 cbr 536 ------- 0 3.0 1073741824.0 17 38
r 0.652965 3 1 encap 556 ------- 32 3.2 0.1 -1 42
+ 0.652965 1 0 encap 556 ------- 32 3.2 0.1 -1 42
- 0.652965 1 0 encap 556 ------- 32 3.2 0.1 -1 42
r 0.661648 1 4 cbr 536 ------- 0 3.0 1073741824.0 17 38
r 0.665931 1 0 encap 556 ------- 32 3.2 0.1 -1 42
+ 0.665931 0 1 cbr 536 ------- 0 3.0 1073741824.0 18 41
- 0.665931 0 1 cbr 536 ------- 0 3.0 1073741824.0 18 41
+ 0.67 3 1 encap 556 ------- 32 3.2 0.1 -1 44
- 0.67 3 1 encap 556 ------- 32 3.2 0.1 -1 44
r 0.678789 0 1 cbr 536 ------- 0 3.0 1073741824.0 18 41
+ 0.678789 1 4 cbr 536 ------- 0 3.0 1073741824.0 18 41
- 0.678789 1 4 cbr 536 ------- 0 3.0 1073741824.0 18 41
r 0.682965 3 1 encap 556 ------- 32 3.2 0.1 -1 44
+ 0.682965 1 0 encap 556 ------- 32 3.2 0.1 -1 44
- 0.682965 1 0 encap 556 ------- 32 3.2 0.1 -1 44
r 0.691648 1 4 cbr 536 ------- 0 3.0 1073741824.0 18 41
r 0.695931 1 0 encap 556 ------- 32 3.2 0.1 -1 44
+ 0.695931 0 1 cbr 536 ------- 0 3.0 1073741824.0 19 43
- 0.695931 0 1 cbr 536 ------- 0 3.0 1073741824.0 19 43
+ 0.7 5 2 graft 80 ------- 31 5.1 2.1 -1 45
- 0.7 5 2 graft 80 ------- 31 5.1 2.1 -1 45
v 0.7 eval {set sim_annotation {0.69999999999999996 5 join-group 1073741824}}
+ 0.7 3 1 encap 556 ------- 32 3.2 0.1 -1 47
- 0.7 3 1 encap 556 ------- 32 3.2 0.1 -1 47
r 0.708789 0 1 cbr 536 ------- 0 3.0 1073741824.0 19 43
+ 0.708789 1 4 cbr 536 ------- 0 3.0 1073741824.0 19 43
- 0.708789 1 4 cbr 536 ------- 0 3.0 1073741824.0 19 43
r 0.710427 5 2 graft 80 ------- 31 5.1 2.1 -1 45
+ 0.710427 2 0 graft 80 ------- 31 2.1 0.0 -1 48
- 0.710427 2 0 graft 80 ------- 31 2.1 0.0 -1 48
r 0.712965 3 1 encap 556 ------- 32 3.2 0.1 -1 47
+ 0.712965 1 0 encap 556 ------- 32 3.2 0.1 -1 47
- 0.712965 1 0 encap 556 ------- 32 3.2 0.1 -1 47
r 0.720853 2 0 graft 80 ------- 31 2.1 0.0 -1 48
r 0.721648 1 4 cbr 536 ------- 0 3.0 1073741824.0 19 43
r 0.725931 1 0 encap 556 ------- 32 3.2 0.1 -1 47
+ 0.725931 0 1 cbr 536 ------- 0 3.0 1073741824.0 20 46
- 0.725931 0 1 cbr 536 ------- 0 3.0 1073741824.0 20 46
+ 0.725931 0 2 cbr 536 ------- 0 3.0 1073741824.0 20 46
- 0.725931 0 2 cbr 536 ------- 0 3.0 1073741824.0 20 46
+ 0.73 3 1 encap 556 ------- 32 3.2 0.1 -1 50
- 0.73 3 1 encap 556 ------- 32 3.2 0.1 -1 50
r 0.738789 0 1 cbr 536 ------- 0 3.0 1073741824.0 20 46
+ 0.738789 1 4 cbr 536 ------- 0 3.0 1073741824.0 20 46
- 0.738789 1 4 cbr 536 ------- 0 3.0 1073741824.0 20 46
r 0.738789 0 2 cbr 536 ------- 0 3.0 1073741824.0 20 46
+ 0.738789 2 5 cbr 536 ------- 0 3.0 1073741824.0 20 46
- 0.738789 2 5 cbr 536 ------- 0 3.0 1073741824.0 20 46
r 0.742965 3 1 encap 556 ------- 32 3.2 0.1 -1 50
+ 0.742965 1 0 encap 556 ------- 32 3.2 0.1 -1 50
- 0.742965 1 0 encap 556 ------- 32 3.2 0.1 -1 50
r 0.751648 1 4 cbr 536 ------- 0 3.0 1073741824.0 20 46
r 0.751648 2 5 cbr 536 ------- 0 3.0 1073741824.0 20 46
r 0.755931 1 0 encap 556 ------- 32 3.2 0.1 -1 50
+ 0.755931 0 1 cbr 536 ------- 0 3.0 1073741824.0 21 49
- 0.755931 0 1 cbr 536 ------- 0 3.0 1073741824.0 21 49
+ 0.755931 0 2 cbr 536 ------- 0 3.0 1073741824.0 21 49
- 0.755931 0 2 cbr 536 ------- 0 3.0 1073741824.0 21 49
+ 0.76 3 1 encap 556 ------- 32 3.2 0.1 -1 52
- 0.76 3 1 encap 556 ------- 32 3.2 0.1 -1 52
r 0.768789 0 1 cbr 536 ------- 0 3.0 1073741824.0 21 49
+ 0.768789 1 4 cbr 536 ------- 0 3.0 1073741824.0 21 49
- 0.768789 1 4 cbr 536 ------- 0 3.0 1073741824.0 21 49
r 0.768789 0 2 cbr 536 ------- 0 3.0 1073741824.0 21 49
+ 0.768789 2 5 cbr 536 ------- 0 3.0 1073741824.0 21 49
- 0.768789 2 5 cbr 536 ------- 0 3.0 1073741824.0 21 49
r 0.772965 3 1 encap 556 ------- 32 3.2 0.1 -1 52
+ 0.772965 1 0 encap 556 ------- 32 3.2 0.1 -1 52
- 0.772965 1 0 encap 556 ------- 32 3.2 0.1 -1 52
r 0.781648 1 4 cbr 536 ------- 0 3.0 1073741824.0 21 49
r 0.781648 2 5 cbr 536 ------- 0 3.0 1073741824.0 21 49
r 0.785931 1 0 encap 556 ------- 32 3.2 0.1 -1 52
+ 0.785931 0 1 cbr 536 ------- 0 3.0 1073741824.0 22 51
- 0.785931 0 1 cbr 536 ------- 0 3.0 1073741824.0 22 51
+ 0.785931 0 2 cbr 536 ------- 0 3.0 1073741824.0 22 51
- 0.785931 0 2 cbr 536 ------- 0 3.0 1073741824.0 22 51
+ 0.79 3 1 encap 556 ------- 32 3.2 0.1 -1 54
- 0.79 3 1 encap 556 ------- 32 3.2 0.1 -1 54
r 0.798789 0 1 cbr 536 ------- 0 3.0 1073741824.0 22 51
+ 0.798789 1 4 cbr 536 ------- 0 3.0 1073741824.0 22 51
- 0.798789 1 4 cbr 536 ------- 0 3.0 1073741824.0 22 51
r 0.798789 0 2 cbr 536 ------- 0 3.0 1073741824.0 22 51
+ 0.798789 2 5 cbr 536 ------- 0 3.0 1073741824.0 22 51
- 0.798789 2 5 cbr 536 ------- 0 3.0 1073741824.0 22 51
v 0.8 eval {set sim_annotation {0.80000000000000004 2 join-group 1073741824}}
r 0.802965 3 1 encap 556 ------- 32 3.2 0.1 -1 54
+ 0.802965 1 0 encap 556 ------- 32 3.2 0.1 -1 54
- 0.802965 1 0 encap 556 ------- 32 3.2 0.1 -1 54
r 0.811648 1 4 cbr 536 ------- 0 3.0 1073741824.0 22 51
r 0.811648 2 5 cbr 536 ------- 0 3.0 1073741824.0 22 51
r 0.815931 1 0 encap 556 ------- 32 3.2 0.1 -1 54
+ 0.815931 0 1 cbr 536 ------- 0 3.0 1073741824.0 23 53
- 0.815931 0 1 cbr 536 ------- 0 3.0 1073741824.0 23 53
+ 0.815931 0 2 cbr 536 ------- 0 3.0 1073741824.0 23 53
- 0.815931 0 2 cbr 536 ------- 0 3.0 1073741824.0 23 53
+ 0.82 3 1 encap 556 ------- 32 3.2 0.1 -1 56
- 0.82 3 1 encap 556 ------- 32 3.2 0.1 -1 56
r 0.828789 0 1 cbr 536 ------- 0 3.0 1073741824.0 23 53
+ 0.828789 1 4 cbr 536 ------- 0 3.0 1073741824.0 23 53
- 0.828789 1 4 cbr 536 ------- 0 3.0 1073741824.0 23 53
r 0.828789 0 2 cbr 536 ------- 0 3.0 1073741824.0 23 53
+ 0.828789 2 5 cbr 536 ------- 0 3.0 1073741824.0 23 53
- 0.828789 2 5 cbr 536 ------- 0 3.0 1073741824.0 23 53
r 0.832965 3 1 encap 556 ------- 32 3.2 0.1 -1 56
+ 0.832965 1 0 encap 556 ------- 32 3.2 0.1 -1 56
- 0.832965 1 0 encap 556 ------- 32 3.2 0.1 -1 56
r 0.841648 1 4 cbr 536 ------- 0 3.0 1073741824.0 23 53
r 0.841648 2 5 cbr 536 ------- 0 3.0 1073741824.0 23 53
r 0.845931 1 0 encap 556 ------- 32 3.2 0.1 -1 56
+ 0.845931 0 1 cbr 536 ------- 0 3.0 1073741824.0 24 55
- 0.845931 0 1 cbr 536 ------- 0 3.0 1073741824.0 24 55
+ 0.845931 0 2 cbr 536 ------- 0 3.0 1073741824.0 24 55
- 0.845931 0 2 cbr 536 ------- 0 3.0 1073741824.0 24 55
+ 0.85 3 1 encap 556 ------- 32 3.2 0.1 -1 58
- 0.85 3 1 encap 556 ------- 32 3.2 0.1 -1 58
r 0.858789 0 1 cbr 536 ------- 0 3.0 1073741824.0 24 55
+ 0.858789 1 4 cbr 536 ------- 0 3.0 1073741824.0 24 55
- 0.858789 1 4 cbr 536 ------- 0 3.0 1073741824.0 24 55
r 0.858789 0 2 cbr 536 ------- 0 3.0 1073741824.0 24 55
+ 0.858789 2 5 cbr 536 ------- 0 3.0 1073741824.0 24 55
- 0.858789 2 5 cbr 536 ------- 0 3.0 1073741824.0 24 55
r 0.862965 3 1 encap 556 ------- 32 3.2 0.1 -1 58
+ 0.862965 1 0 encap 556 ------- 32 3.2 0.1 -1 58
- 0.862965 1 0 encap 556 ------- 32 3.2 0.1 -1 58
r 0.871648 1 4 cbr 536 ------- 0 3.0 1073741824.0 24 55
r 0.871648 2 5 cbr 536 ------- 0 3.0 1073741824.0 24 55
r 0.875931 1 0 encap 556 ------- 32 3.2 0.1 -1 58
+ 0.875931 0 1 cbr 536 ------- 0 3.0 1073741824.0 25 57
- 0.875931 0 1 cbr 536 ------- 0 3.0 1073741824.0 25 57
+ 0.875931 0 2 cbr 536 ------- 0 3.0 1073741824.0 25 57
- 0.875931 0 2 cbr 536 ------- 0 3.0 1073741824.0 25 57
+ 0.88 3 1 encap 556 ------- 32 3.2 0.1 -1 60
- 0.88 3 1 encap 556 ------- 32 3.2 0.1 -1 60
r 0.888789 0 1 cbr 536 ------- 0 3.0 1073741824.0 25 57
+ 0.888789 1 4 cbr 536 ------- 0 3.0 1073741824.0 25 57
- 0.888789 1 4 cbr 536 ------- 0 3.0 1073741824.0 25 57
r 0.888789 0 2 cbr 536 ------- 0 3.0 1073741824.0 25 57
+ 0.888789 2 5 cbr 536 ------- 0 3.0 1073741824.0 25 57
- 0.888789 2 5 cbr 536 ------- 0 3.0 1073741824.0 25 57
r 0.892965 3 1 encap 556 ------- 32 3.2 0.1 -1 60
+ 0.892965 1 0 encap 556 ------- 32 3.2 0.1 -1 60
- 0.892965 1 0 encap 556 ------- 32 3.2 0.1 -1 60
r 0.901648 1 4 cbr 536 ------- 0 3.0 1073741824.0 25 57
r 0.901648 2 5 cbr 536 ------- 0 3.0 1073741824.0 25 57
r 0.905931 1 0 encap 556 ------- 32 3.2 0.1 -1 60
+ 0.905931 0 1 cbr 536 ------- 0 3.0 1073741824.0 26 59
- 0.905931 0 1 cbr 536 ------- 0 3.0 1073741824.0 26 59
+ 0.905931 0 2 cbr 536 ------- 0 3.0 1073741824.0 26 59
- 0.905931 0 2 cbr 536 ------- 0 3.0 1073741824.0 26 59
+ 0.91 3 1 encap 556 ------- 32 3.2 0.1 -1 62
- 0.91 3 1 encap 556 ------- 32 3.2 0.1 -1 62
r 0.918789 0 1 cbr 536 ------- 0 3.0 1073741824.0 26 59
+ 0.918789 1 4 cbr 536 ------- 0 3.0 1073741824.0 26 59
- 0.918789 1 4 cbr 536 ------- 0 3.0 1073741824.0 26 59
r 0.918789 0 2 cbr 536 ------- 0 3.0 1073741824.0 26 59
+ 0.918789 2 5 cbr 536 ------- 0 3.0 1073741824.0 26 59
- 0.918789 2 5 cbr 536 ------- 0 3.0 1073741824.0 26 59
r 0.922965 3 1 encap 556 ------- 32 3.2 0.1 -1 62
+ 0.922965 1 0 encap 556 ------- 32 3.2 0.1 -1 62
- 0.922965 1 0 encap 556 ------- 32 3.2 0.1 -1 62
r 0.931648 1 4 cbr 536 ------- 0 3.0 1073741824.0 26 59
r 0.931648 2 5 cbr 536 ------- 0 3.0 1073741824.0 26 59
r 0.935931 1 0 encap 556 ------- 32 3.2 0.1 -1 62
+ 0.935931 0 1 cbr 536 ------- 0 3.0 1073741824.0 27 61
- 0.935931 0 1 cbr 536 ------- 0 3.0 1073741824.0 27 61
+ 0.935931 0 2 cbr 536 ------- 0 3.0 1073741824.0 27 61
- 0.935931 0 2 cbr 536 ------- 0 3.0 1073741824.0 27 61
+ 0.94 3 1 encap 556 ------- 32 3.2 0.1 -1 64
- 0.94 3 1 encap 556 ------- 32 3.2 0.1 -1 64
r 0.948789 0 1 cbr 536 ------- 0 3.0 1073741824.0 27 61
+ 0.948789 1 4 cbr 536 ------- 0 3.0 1073741824.0 27 61
- 0.948789 1 4 cbr 536 ------- 0 3.0 1073741824.0 27 61
r 0.948789 0 2 cbr 536 ------- 0 3.0 1073741824.0 27 61
+ 0.948789 2 5 cbr 536 ------- 0 3.0 1073741824.0 27 61
- 0.948789 2 5 cbr 536 ------- 0 3.0 1073741824.0 27 61
r 0.952965 3 1 encap 556 ------- 32 3.2 0.1 -1 64
+ 0.952965 1 0 encap 556 ------- 32 3.2 0.1 -1 64
- 0.952965 1 0 encap 556 ------- 32 3.2 0.1 -1 64
r 0.961648 1 4 cbr 536 ------- 0 3.0 1073741824.0 27 61
r 0.961648 2 5 cbr 536 ------- 0 3.0 1073741824.0 27 61
r 0.965931 1 0 encap 556 ------- 32 3.2 0.1 -1 64
+ 0.965931 0 1 cbr 536 ------- 0 3.0 1073741824.0 28 63
- 0.965931 0 1 cbr 536 ------- 0 3.0 1073741824.0 28 63
+ 0.965931 0 2 cbr 536 ------- 0 3.0 1073741824.0 28 63
- 0.965931 0 2 cbr 536 ------- 0 3.0 1073741824.0 28 63
+ 0.97 3 1 encap 556 ------- 32 3.2 0.1 -1 66
- 0.97 3 1 encap 556 ------- 32 3.2 0.1 -1 66
r 0.978789 0 1 cbr 536 ------- 0 3.0 1073741824.0 28 63
+ 0.978789 1 4 cbr 536 ------- 0 3.0 1073741824.0 28 63
- 0.978789 1 4 cbr 536 ------- 0 3.0 1073741824.0 28 63
r 0.978789 0 2 cbr 536 ------- 0 3.0 1073741824.0 28 63
+ 0.978789 2 5 cbr 536 ------- 0 3.0 1073741824.0 28 63
- 0.978789 2 5 cbr 536 ------- 0 3.0 1073741824.0 28 63
r 0.982965 3 1 encap 556 ------- 32 3.2 0.1 -1 66
+ 0.982965 1 0 encap 556 ------- 32 3.2 0.1 -1 66
- 0.982965 1 0 encap 556 ------- 32 3.2 0.1 -1 66
r 0.991648 1 4 cbr 536 ------- 0 3.0 1073741824.0 28 63
r 0.991648 2 5 cbr 536 ------- 0 3.0 1073741824.0 28 63
r 0.995931 1 0 encap 556 ------- 32 3.2 0.1 -1 66
+ 0.995931 0 1 cbr 536 ------- 0 3.0 1073741824.0 29 65
- 0.995931 0 1 cbr 536 ------- 0 3.0 1073741824.0 29 65
+ 0.995931 0 2 cbr 536 ------- 0 3.0 1073741824.0 29 65
- 0.995931 0 2 cbr 536 ------- 0 3.0 1073741824.0 29 65
+ 1 3 1 encap 556 ------- 32 3.2 0.1 -1 68
- 1 3 1 encap 556 ------- 32 3.2 0.1 -1 68
r 1.008789 0 1 cbr 536 ------- 0 3.0 1073741824.0 29 65
+ 1.008789 1 4 cbr 536 ------- 0 3.0 1073741824.0 29 65
- 1.008789 1 4 cbr 536 ------- 0 3.0 1073741824.0 29 65
r 1.008789 0 2 cbr 536 ------- 0 3.0 1073741824.0 29 65
+ 1.008789 2 5 cbr 536 ------- 0 3.0 1073741824.0 29 65
- 1.008789 2 5 cbr 536 ------- 0 3.0 1073741824.0 29 65
r 1.012965 3 1 encap 556 ------- 32 3.2 0.1 -1 68
+ 1.012965 1 0 encap 556 ------- 32 3.2 0.1 -1 68
- 1.012965 1 0 encap 556 ------- 32 3.2 0.1 -1 68
r 1.021648 1 4 cbr 536 ------- 0 3.0 1073741824.0 29 65
r 1.021648 2 5 cbr 536 ------- 0 3.0 1073741824.0 29 65
r 1.025931 1 0 encap 556 ------- 32 3.2 0.1 -1 68
+ 1.025931 0 1 cbr 536 ------- 0 3.0 1073741824.0 30 67
- 1.025931 0 1 cbr 536 ------- 0 3.0 1073741824.0 30 67
+ 1.025931 0 2 cbr 536 ------- 0 3.0 1073741824.0 30 67
- 1.025931 0 2 cbr 536 ------- 0 3.0 1073741824.0 30 67
+ 1.03 3 1 encap 556 ------- 32 3.2 0.1 -1 70
- 1.03 3 1 encap 556 ------- 32 3.2 0.1 -1 70
r 1.038789 0 1 cbr 536 ------- 0 3.0 1073741824.0 30 67
+ 1.038789 1 4 cbr 536 ------- 0 3.0 1073741824.0 30 67
- 1.038789 1 4 cbr 536 ------- 0 3.0 1073741824.0 30 67
r 1.038789 0 2 cbr 536 ------- 0 3.0 1073741824.0 30 67
+ 1.038789 2 5 cbr 536 ------- 0 3.0 1073741824.0 30 67
- 1.038789 2 5 cbr 536 ------- 0 3.0 1073741824.0 30 67
r 1.042965 3 1 encap 556 ------- 32 3.2 0.1 -1 70
+ 1.042965 1 0 encap 556 ------- 32 3.2 0.1 -1 70
- 1.042965 1 0 encap 556 ------- 32 3.2 0.1 -1 70
r 1.051648 1 4 cbr 536 ------- 0 3.0 1073741824.0 30 67
r 1.051648 2 5 cbr 536 ------- 0 3.0 1073741824.0 30 67
r 1.055931 1 0 encap 556 ------- 32 3.2 0.1 -1 70
+ 1.055931 0 1 cbr 536 ------- 0 3.0 1073741824.0 31 69
- 1.055931 0 1 cbr 536 ------- 0 3.0 1073741824.0 31 69
+ 1.055931 0 2 cbr 536 ------- 0 3.0 1073741824.0 31 69
- 1.055931 0 2 cbr 536 ------- 0 3.0 1073741824.0 31 69
+ 1.06 3 1 encap 556 ------- 32 3.2 0.1 -1 72
- 1.06 3 1 encap 556 ------- 32 3.2 0.1 -1 72
r 1.068789 0 1 cbr 536 ------- 0 3.0 1073741824.0 31 69
+ 1.068789 1 4 cbr 536 ------- 0 3.0 1073741824.0 31 69
- 1.068789 1 4 cbr 536 ------- 0 3.0 1073741824.0 31 69
r 1.068789 0 2 cbr 536 ------- 0 3.0 1073741824.0 31 69
+ 1.068789 2 5 cbr 536 ------- 0 3.0 1073741824.0 31 69
- 1.068789 2 5 cbr 536 ------- 0 3.0 1073741824.0 31 69
r 1.072965 3 1 encap 556 ------- 32 3.2 0.1 -1 72
+ 1.072965 1 0 encap 556 ------- 32 3.2 0.1 -1 72
- 1.072965 1 0 encap 556 ------- 32 3.2 0.1 -1 72
r 1.081648 1 4 cbr 536 ------- 0 3.0 1073741824.0 31 69
r 1.081648 2 5 cbr 536 ------- 0 3.0 1073741824.0 31 69
r 1.085931 1 0 encap 556 ------- 32 3.2 0.1 -1 72
+ 1.085931 0 1 cbr 536 ------- 0 3.0 1073741824.0 32 71
- 1.085931 0 1 cbr 536 ------- 0 3.0 1073741824.0 32 71
+ 1.085931 0 2 cbr 536 ------- 0 3.0 1073741824.0 32 71
- 1.085931 0 2 cbr 536 ------- 0 3.0 1073741824.0 32 71
+ 1.09 3 1 encap 556 ------- 32 3.2 0.1 -1 74
- 1.09 3 1 encap 556 ------- 32 3.2 0.1 -1 74
r 1.098789 0 1 cbr 536 ------- 0 3.0 1073741824.0 32 71
+ 1.098789 1 4 cbr 536 ------- 0 3.0 1073741824.0 32 71
- 1.098789 1 4 cbr 536 ------- 0 3.0 1073741824.0 32 71
r 1.098789 0 2 cbr 536 ------- 0 3.0 1073741824.0 32 71
+ 1.098789 2 5 cbr 536 ------- 0 3.0 1073741824.0 32 71
- 1.098789 2 5 cbr 536 ------- 0 3.0 1073741824.0 32 71
r 1.102965 3 1 encap 556 ------- 32 3.2 0.1 -1 74
+ 1.102965 1 0 encap 556 ------- 32 3.2 0.1 -1 74
- 1.102965 1 0 encap 556 ------- 32 3.2 0.1 -1 74
r 1.111648 1 4 cbr 536 ------- 0 3.0 1073741824.0 32 71
r 1.111648 2 5 cbr 536 ------- 0 3.0 1073741824.0 32 71
r 1.115931 1 0 encap 556 ------- 32 3.2 0.1 -1 74
+ 1.115931 0 1 cbr 536 ------- 0 3.0 1073741824.0 33 73
- 1.115931 0 1 cbr 536 ------- 0 3.0 1073741824.0 33 73
+ 1.115931 0 2 cbr 536 ------- 0 3.0 1073741824.0 33 73
- 1.115931 0 2 cbr 536 ------- 0 3.0 1073741824.0 33 73
+ 1.12 3 1 encap 556 ------- 32 3.2 0.1 -1 76
- 1.12 3 1 encap 556 ------- 32 3.2 0.1 -1 76
r 1.128789 0 1 cbr 536 ------- 0 3.0 1073741824.0 33 73
+ 1.128789 1 4 cbr 536 ------- 0 3.0 1073741824.0 33 73
- 1.128789 1 4 cbr 536 ------- 0 3.0 1073741824.0 33 73
r 1.128789 0 2 cbr 536 ------- 0 3.0 1073741824.0 33 73
+ 1.128789 2 5 cbr 536 ------- 0 3.0 1073741824.0 33 73
- 1.128789 2 5 cbr 536 ------- 0 3.0 1073741824.0 33 73
r 1.132965 3 1 encap 556 ------- 32 3.2 0.1 -1 76
+ 1.132965 1 0 encap 556 ------- 32 3.2 0.1 -1 76
- 1.132965 1 0 encap 556 ------- 32 3.2 0.1 -1 76
r 1.141648 1 4 cbr 536 ------- 0 3.0 1073741824.0 33 73
r 1.141648 2 5 cbr 536 ------- 0 3.0 1073741824.0 33 73
r 1.145931 1 0 encap 556 ------- 32 3.2 0.1 -1 76
+ 1.145931 0 1 cbr 536 ------- 0 3.0 1073741824.0 34 75
- 1.145931 0 1 cbr 536 ------- 0 3.0 1073741824.0 34 75
+ 1.145931 0 2 cbr 536 ------- 0 3.0 1073741824.0 34 75
- 1.145931 0 2 cbr 536 ------- 0 3.0 1073741824.0 34 75
+ 1.15 3 1 encap 556 ------- 32 3.2 0.1 -1 78
- 1.15 3 1 encap 556 ------- 32 3.2 0.1 -1 78
r 1.158789 0 1 cbr 536 ------- 0 3.0 1073741824.0 34 75
+ 1.158789 1 4 cbr 536 ------- 0 3.0 1073741824.0 34 75
- 1.158789 1 4 cbr 536 ------- 0 3.0 1073741824.0 34 75
r 1.158789 0 2 cbr 536 ------- 0 3.0 1073741824.0 34 75
+ 1.158789 2 5 cbr 536 ------- 0 3.0 1073741824.0 34 75
- 1.158789 2 5 cbr 536 ------- 0 3.0 1073741824.0 34 75
r 1.162965 3 1 encap 556 ------- 32 3.2 0.1 -1 78
+ 1.162965 1 0 encap 556 ------- 32 3.2 0.1 -1 78
- 1.162965 1 0 encap 556 ------- 32 3.2 0.1 -1 78
r 1.171648 1 4 cbr 536 ------- 0 3.0 1073741824.0 34 75
r 1.171648 2 5 cbr 536 ------- 0 3.0 1073741824.0 34 75
r 1.175931 1 0 encap 556 ------- 32 3.2 0.1 -1 78
+ 1.175931 0 1 cbr 536 ------- 0 3.0 1073741824.0 35 77
- 1.175931 0 1 cbr 536 ------- 0 3.0 1073741824.0 35 77
+ 1.175931 0 2 cbr 536 ------- 0 3.0 1073741824.0 35 77
- 1.175931 0 2 cbr 536 ------- 0 3.0 1073741824.0 35 77
+ 1.18 3 1 encap 556 ------- 32 3.2 0.1 -1 80
- 1.18 3 1 encap 556 ------- 32 3.2 0.1 -1 80
r 1.188789 0 1 cbr 536 ------- 0 3.0 1073741824.0 35 77
+ 1.188789 1 4 cbr 536 ------- 0 3.0 1073741824.0 35 77
- 1.188789 1 4 cbr 536 ------- 0 3.0 1073741824.0 35 77
r 1.188789 0 2 cbr 536 ------- 0 3.0 1073741824.0 35 77
+ 1.188789 2 5 cbr 536 ------- 0 3.0 1073741824.0 35 77
- 1.188789 2 5 cbr 536 ------- 0 3.0 1073741824.0 35 77
r 1.192965 3 1 encap 556 ------- 32 3.2 0.1 -1 80
+ 1.192965 1 0 encap 556 ------- 32 3.2 0.1 -1 80
- 1.192965 1 0 encap 556 ------- 32 3.2 0.1 -1 80
r 1.201648 1 4 cbr 536 ------- 0 3.0 1073741824.0 35 77
r 1.201648 2 5 cbr 536 ------- 0 3.0 1073741824.0 35 77
r 1.205931 1 0 encap 556 ------- 32 3.2 0.1 -1 80
+ 1.205931 0 1 cbr 536 ------- 0 3.0 1073741824.0 36 79
- 1.205931 0 1 cbr 536 ------- 0 3.0 1073741824.0 36 79
+ 1.205931 0 2 cbr 536 ------- 0 3.0 1073741824.0 36 79
- 1.205931 0 2 cbr 536 ------- 0 3.0 1073741824.0 36 79
+ 1.21 3 1 encap 556 ------- 32 3.2 0.1 -1 82
- 1.21 3 1 encap 556 ------- 32 3.2 0.1 -1 82
r 1.218789 0 1 cbr 536 ------- 0 3.0 1073741824.0 36 79
+ 1.218789 1 4 cbr 536 ------- 0 3.0 1073741824.0 36 79
- 1.218789 1 4 cbr 536 ------- 0 3.0 1073741824.0 36 79
r 1.218789 0 2 cbr 536 ------- 0 3.0 1073741824.0 36 79
+ 1.218789 2 5 cbr 536 ------- 0 3.0 1073741824.0 36 79
- 1.218789 2 5 cbr 536 ------- 0 3.0 1073741824.0 36 79
r 1.222965 3 1 encap 556 ------- 32 3.2 0.1 -1 82
+ 1.222965 1 0 encap 556 ------- 32 3.2 0.1 -1 82
- 1.222965 1 0 encap 556 ------- 32 3.2 0.1 -1 82
r 1.231648 1 4 cbr 536 ------- 0 3.0 1073741824.0 36 79
r 1.231648 2 5 cbr 536 ------- 0 3.0 1073741824.0 36 79
r 1.235931 1 0 encap 556 ------- 32 3.2 0.1 -1 82
+ 1.235931 0 1 cbr 536 ------- 0 3.0 1073741824.0 37 81
- 1.235931 0 1 cbr 536 ------- 0 3.0 1073741824.0 37 81
+ 1.235931 0 2 cbr 536 ------- 0 3.0 1073741824.0 37 81
- 1.235931 0 2 cbr 536 ------- 0 3.0 1073741824.0 37 81
+ 1.24 3 1 encap 556 ------- 32 3.2 0.1 -1 84
- 1.24 3 1 encap 556 ------- 32 3.2 0.1 -1 84
r 1.248789 0 1 cbr 536 ------- 0 3.0 1073741824.0 37 81
+ 1.248789 1 4 cbr 536 ------- 0 3.0 1073741824.0 37 81