Sconfig 0.00000 tap: on snoop: rts? on errs? on
Sconfig 0.00000 salvage: on !bd replies? on
Sconfig 0.00000 grat error: on grat reply: on
Sconfig 0.00000 $reply for props: on ring 0 search: on
Sconfig 0.00000 using MOBICACHE
s 17.208000000 _2_ MAC  --- 0 SYNC 9 [0.13 2 2] 
s 17.221000000 _9_ MAC  --- 0 SYNC 9 [0.12 9 9] 
s 17.223000000 _5_ MAC  --- 0 SYNC 9 [0.11 5 5] 
D 17.226000667 _4_ MAC  SLP 0 SYNC 9 [0.11 5 5] 
s 18.644000000 _4_ MAC  --- 0 SYNC 9 [0.13 4 4] 
s 18.647000000 _7_ MAC  --- 0 SYNC 9 [0.12 7 7] 
D 18.650000667 _6_ MAC  COL 0 SYNC 9 [0.12 7 7] 
s 18.659000667 _1_ MAC  --- 0 SYNC 9 [0.11 1 2] 
s 20.080000667 _5_ MAC  --- 0 SYNC 9 [0.12 5 4] 
s 20.096001333 _0_ MAC  --- 0 SYNC 9 [0.11 0 1] 
s 20.096001333 _2_ MAC  --- 0 SYNC 9 [0.11 2 1] 
D 20.096002000 _1_ MAC  COL 0 SYNC 9 [0.11 2 1] 
D 20.099002000 _1_ MAC  COL 0 SYNC 9 [0.11 0 1] 
D 20.099002000 _3_ MAC  SLP 0 SYNC 9 [0.11 2 1] 
s 20.100000667 _8_ MAC  --- 0 SYNC 9 [0.10 8 9] 
s 21.511000667 _8_ MAC  --- 0 SYNC 9 [0.12 8 9] 
s 21.518000667 _3_ MAC  --- 0 SYNC 9 [0.12 3 2] 
s 22.939001333 _9_ MAC  --- 0 SYNC 9 [0.13 9 8] 
s 22.943001333 _6_ MAC  --- 0 SYNC 9 [0.13 6 5] 
D 22.946002000 _7_ MAC  SLP 0 SYNC 9 [0.13 6 5] 
s 22.952000667 _3_ MAC  --- 0 SYNC 9 [0.12 3 2] 
D 22.955001333 _4_ MAC  SLP 0 SYNC 9 [0.12 3 2] 
s 24.385001333 _7_ MAC  --- 0 SYNC 9 [0.12 7 8] 
s 24.396001333 _4_ MAC  --- 0 SYNC 9 [0.11 4 5] 
s 25.808001333 _4_ MAC  --- 0 SYNC 9 [0.13 4 5] 
s 27.257002000 _6_ MAC  --- 0 SYNC 9 [0.11 6 5] 
s 28.696002000 _7_ MAC  --- 0 SYNC 9 [0.10 7 8] 
s 32.989000667 _1_ MAC  --- 0 SYNC 9 [0.11 1 2] 
s 34.402002000 _8_ MAC  --- 0 SYNC 9 [0.13 8 9] 
s 34.410002000 _5_ MAC  --- 0 SYNC 9 [0.12 5 4] 
s 34.416001333 _0_ MAC  --- 0 SYNC 9 [0.12 0 1] 
s 35.836000667 _3_ MAC  --- 0 SYNC 9 [0.13 3 2] 
s 35.851002000 _8_ MAC  --- 0 SYNC 9 [0.11 8 9] 
s 37.270002667 _6_ MAC  --- 0 SYNC 9 [0.13 6 5] 
s 37.271002667 _9_ MAC  --- 0 SYNC 9 [0.13 9 8] 
D 37.274003333 _8_ MAC  COL 0 SYNC 9 [0.13 9 8] 
s 37.290002000 _3_ MAC  --- 0 SYNC 9 [0.11 3 2] 
s 38.707002667 _7_ MAC  --- 0 SYNC 9 [0.12 7 8] 
s 38.717001333 _2_ MAC  --- 0 SYNC 9 [0.11 2 1] 
s 40.154001333 _4_ MAC  --- 0 SYNC 9 [0.11 4 5] 
s 41.574002667 _4_ MAC  --- 0 SYNC 9 [0.12 4 5] 
s 43.003003333 _6_ MAC  --- 0 SYNC 9 [0.13 6 5] 
s 44.454003333 _7_ MAC  --- 0 SYNC 9 [0.11 7 8] 
s 47.326002000 _1_ MAC  --- 0 SYNC 9 [0.10 1 2] 
s 48.738002667 _0_ MAC  --- 0 SYNC 9 [0.12 0 1] 
s 48.745003333 _5_ MAC  --- 0 SYNC 9 [0.12 5 4] 
s 48.762002000 _8_ MAC  --- 0 SYNC 9 [0.10 8 9] 
s 50.179002000 _3_ MAC  --- 0 SYNC 9 [0.12 3 2] 
s 50.184003333 _8_ MAC  --- 0 SYNC 9 [0.11 8 9] 
s 51.618003333 _3_ MAC  --- 0 SYNC 9 [0.11 3 2] 
s 51.620004000 _6_ MAC  --- 0 SYNC 9 [0.11 6 5] 
D 51.623004667 _5_ MAC  COL 0 SYNC 9 [0.11 6 5] 
s 51.626002667 _9_ MAC  --- 0 SYNC 9 [0.10 9 8] 
s 53.052002667 _7_ MAC  --- 0 SYNC 9 [0.11 7 8] 
s 53.057002667 _2_ MAC  --- 0 SYNC 9 [0.10 2 1] 
s 54.494002667 _4_ MAC  --- 0 SYNC 9 [0.10 4 5] 
s 55.903004000 _4_ MAC  --- 0 SYNC 9 [0.12 4 5] 
s 57.357003333 _6_ MAC  --- 0 SYNC 9 [0.10 6 5] 
s 58.786004667 _7_ MAC  --- 0 SYNC 9 [0.11 7 8] 
s 61.647003333 _1_ MAC  --- 0 SYNC 9 [0.11 1 2] 
s 63.083004667 _5_ MAC  --- 0 SYNC 9 [0.11 5 4] 
s 63.085003333 _8_ MAC  --- 0 SYNC 9 [0.11 8 9] 
D 63.088004000 _7_ MAC  COL 0 SYNC 9 [0.11 8 9] 
s 63.090004000 _0_ MAC  --- 0 SYNC 9 [0.10 0 1] 
s 64.496003333 _3_ MAC  --- 0 SYNC 9 [0.13 3 2] 
s 64.497003333 _8_ MAC  --- 0 SYNC 9 [0.13 8 9] 
s 65.940005333 _6_ MAC  --- 0 SYNC 9 [0.12 6 5] 
s 65.941004667 _3_ MAC  --- 0 SYNC 9 [0.12 3 2] 
D 65.944005333 _4_ MAC  COL 0 SYNC 9 [0.12 3 2] 
s 65.948004000 _9_ MAC  --- 0 SYNC 9 [0.11 9 8] 
s 67.369004000 _7_ MAC  --- 0 SYNC 9 [0.12 7 8] 
s 67.389004000 _2_ MAC  --- 0 SYNC 9 [0.10 2 1] 
s 68.813004000 _4_ MAC  --- 0 SYNC 9 [0.11 4 5] 
s 70.228005333 _4_ MAC  --- 0 SYNC 9 [0.13 4 5] 
s 71.663004667 _6_ MAC  --- 0 SYNC 9 [0.13 6 5] 
s 73.119006000 _7_ MAC  --- 0 SYNC 9 [0.10 7 8] 
s 75.976004667 _1_ MAC  --- 0 SYNC 9 [0.11 1 2] 
s 77.394006000 _5_ MAC  --- 0 SYNC 9 [0.13 5 4] 
s 77.408005333 _0_ MAC  --- 0 SYNC 9 [0.11 0 1] 
s 77.421004667 _8_ MAC  --- 0 SYNC 9 [0.10 8 9] 
s 78.831004667 _8_ MAC  --- 0 SYNC 9 [0.12 8 9] 
s 78.854004667 _3_ MAC  --- 0 SYNC 9 [0.10 3 2] 
s 80.266006667 _6_ MAC  --- 0 SYNC 9 [0.12 6 5] 
s 80.268005333 _9_ MAC  --- 0 SYNC 9 [0.12 9 8] 
D 80.271006000 _8_ MAC  COL 0 SYNC 9 [0.12 9 8] 
s 80.277006000 _3_ MAC  --- 0 SYNC 9 [0.11 3 2] 
s 81.694005333 _7_ MAC  --- 0 SYNC 9 [0.13 7 8] 
s 81.716005333 _2_ MAC  --- 0 SYNC 9 [0.11 2 1] 
s 83.137005333 _4_ MAC  --- 0 SYNC 9 [0.12 4 5] 
s 84.582006667 _4_ MAC  --- 0 SYNC 9 [0.11 4 5] 
s 85.990006000 _6_ MAC  --- 0 SYNC 9 [0.13 6 5] 
s 87.437007333 _7_ MAC  --- 0 SYNC 9 [0.12 7 8] 
s 90.301006000 _1_ MAC  --- 0 SYNC 9 [0.12 1 2] 
s 91.726006667 _0_ MAC  --- 0 SYNC 9 [0.13 0 1] 
s 91.738004667 _8_ MAC  --- 0 SYNC 9 [0.11 8 9] 
s 91.740007333 _5_ MAC  --- 0 SYNC 9 [0.11 5 4] 
D 91.743008000 _6_ MAC  COL 0 SYNC 9 [0.11 5 4] 
s 93.159006000 _8_ MAC  --- 0 SYNC 9 [0.13 8 9] 
s 93.167006000 _3_ MAC  --- 0 SYNC 9 [0.12 3 2] 
s 94.602007333 _3_ MAC  --- 0 SYNC 9 [0.12 3 2] 
s 94.611005333 _9_ MAC  --- 0 SYNC 9 [0.11 9 8] 
s 94.618006667 _6_ MAC  --- 0 SYNC 9 [0.10 6 5] 
s 96.030005333 _7_ MAC  --- 0 SYNC 9 [0.12 7 8] 
s 96.042006667 _2_ MAC  --- 0 SYNC 9 [0.11 2 1] 
s 97.459006667 _4_ MAC  --- 0 SYNC 9 [0.13 4 5] 
s 98.911008000 _4_ MAC  --- 0 SYNC 9 [0.11 4 5] 
s 100.000000000 _0_ AGT  --- 0 cbr 50 [0.00 0 0] ------- [0:0 9:0 32 0] [0] 0 0
r 100.000000000 _0_ RTR  --- 0 cbr 50 [0.00 0 0] ------- [0:0 9:0 32 0] [0] 0 0
Sdebug 100.00363 _0_ checking for route for dst 9
s 100.005498391 _0_ RTR  --- 1 DSR 32 [0.00 0 0] ------- [0:255 9:255 32 0] 1 [1 1] [0 1 0 0->0] [0 0 0 0->0]
Sdebug 100.05606 _0_ checking for route for dst 9
s 100.063887377 _0_ RTR  --- 3 DSR 32 [0.00 0 0] ------- [0:255 9:255 32 0] 1 [1 2] [0 2 0 0->0] [0 0 0 0->0]
Sdebug 100.11205 _0_ checking for route for dst 9
Sdebug 100.14393 _0_ checking for route for dst 9
Sdebug 100.19738 _0_ checking for route for dst 9
Sdebug 100.23145 _0_ checking for route for dst 9
Sdebug 100.28970 _0_ checking for route for dst 9
Sdebug 100.33081 _0_ checking for route for dst 9
s 100.336006000 _6_ MAC  --- 0 SYNC 9 [0.11 6 5] 
Sdebug 100.38296 _0_ checking for route for dst 9
s 100.407206667 _0_ MAC  --- 1 DSR 32 [0.00 -1 0] ------- [0:255 9:255 32 0] 1 [1 1] [0 1 0 0->0] [0 0 0 0->0]
Sdebug 100.44016 _0_ checking for route for dst 9
r 100.450207333 _1_ MAC  --- 1 DSR 32 [0.00 -1 0] ------- [0:255 9:255 32 0] 1 [1 1] [0 1 0 0->0] [0 0 0 0->0]
r 100.450232333 _1_ RTR  --- 1 DSR 32 [0.00 -1 0] ------- [0:255 9:255 32 0] 1 [1 1] [0 1 0 0->0] [0 0 0 0->0]
Sdebug 100.47565 _0_ checking for route for dst 9
Sdebug 100.52052 _0_ checking for route for dst 9
Sdebug 100.56820 _0_ checking for route for dst 9
Sdebug 100.61913 _0_ checking for route for dst 9
Sdebug 100.65525 _0_ checking for route for dst 9
Sdebug 100.70707 _0_ checking for route for dst 9
Sdebug 100.74237 _0_ checking for route for dst 9
Sdebug 100.77325 _0_ checking for route for dst 9
Sdebug 100.80552 _0_ checking for route for dst 9
Sdebug 100.83816 _0_ checking for route for dst 9
Sdebug 100.89069 _0_ checking for route for dst 9
Sdebug 100.92897 _0_ checking for route for dst 9
Sdebug 100.97353 _0_ checking for route for dst 9
Sdebug 101.02662 _0_ checking for route for dst 9
Sdebug 101.07837 _0_ checking for route for dst 9
Sdebug 101.11155 _0_ checking for route for dst 9
Sdebug 101.14236 _0_ checking for route for dst 9
Sdebug 101.17918 _0_ checking for route for dst 9
Sdebug 101.22349 _0_ checking for route for dst 9
Sdebug 101.28267 _0_ checking for route for dst 9
Sdebug 101.32153 _0_ checking for route for dst 9
Sdebug 101.37092 _0_ checking for route for dst 9
Sdebug 101.40332 _0_ checking for route for dst 9
Sdebug 101.45837 _0_ checking for route for dst 9
Sdebug 101.49885 _0_ checking for route for dst 9
Sdebug 101.52956 _0_ checking for route for dst 9
Sdebug 101.56673 _0_ checking for route for dst 9
Sdebug 101.60940 _0_ checking for route for dst 9
Sdebug 101.66276 _0_ checking for route for dst 9
Sdebug 101.70406 _0_ checking for route for dst 9
Sdebug 101.74373 _0_ checking for route for dst 9
s 101.782007333 _7_ MAC  --- 0 SYNC 9 [0.10 7 8] 
Sdebug 101.78243 _0_ checking for route for dst 9
Sdebug 101.81284 _0_ checking for route for dst 9
s 101.837206667 _0_ MAC  --- 3 DSR 32 [0.00 -1 0] ------- [0:255 9:255 32 0] 1 [1 2] [0 2 0 0->0] [0 0 0 0->0]
Sdebug 101.85601 _0_ checking for route for dst 9
r 101.880207333 _1_ MAC  --- 3 DSR 32 [0.00 -1 0] ------- [0:255 9:255 32 0] 1 [1 2] [0 2 0 0->0] [0 0 0 0->0]
r 101.880232333 _1_ RTR  --- 3 DSR 32 [0.00 -1 0] ------- [0:255 9:255 32 0] 1 [1 2] [0 2 0 0->0] [0 0 0 0->0]
f 101.885178770 _1_ RTR  --- 3 DSR 48 [0.00 -1 0] ------- [0:255 9:255 32 0] 2 [1 2] [0 2 0 0->0] [0 0 0 0->0]
Sdebug 101.89212 _0_ checking for route for dst 9
Sdebug 101.93767 _0_ checking for route for dst 9
Sdebug 101.99254 _0_ checking for route for dst 9
Sdebug 102.03682 _0_ checking for route for dst 9
Sdebug 102.09121 _0_ checking for route for dst 9
Sdebug 102.13985 _0_ checking for route for dst 9
Sdebug 102.17666 _0_ checking for route for dst 9
Sdebug 102.23403 _0_ checking for route for dst 9
Sdebug 102.28081 _0_ checking for route for dst 9
Sdebug 102.31193 _0_ checking for route for dst 9
Sdebug 102.36151 _0_ checking for route for dst 9
Sdebug 102.40586 _0_ checking for route for dst 9
Sdebug 102.43761 _0_ checking for route for dst 9
Sdebug 102.47682 _0_ checking for route for dst 9
Sdebug 102.51632 _0_ checking for route for dst 9
Sdebug 102.55488 _0_ checking for route for dst 9
Sdebug 102.60097 _0_ checking for route for dst 9
Sdebug 102.64107 _0_ checking for route for dst 9
Sdebug 102.70045 _0_ checking for route for dst 9
Sdebug 102.74131 _0_ checking for route for dst 9
Sdebug 102.78050 _0_ checking for route for dst 9
Sdebug 102.82701 _0_ checking for route for dst 9
Sdebug 102.87602 _0_ checking for route for dst 9
Sdebug 102.91544 _0_ checking for route for dst 9
Sdebug 102.97121 _0_ checking for route for dst 9
Sdebug 103.00560 _0_ checking for route for dst 9
Sdebug 103.04974 _0_ checking for route for dst 9
Sdebug 103.09450 _0_ checking for route for dst 9
Sdebug 103.13207 _0_ checking for route for dst 9
Sdebug 103.17276 _0_ checking for route for dst 9
Sdebug 103.20950 _0_ checking for route for dst 9
Sdebug 103.24519 _0_ checking for route for dst 9
s 103.249207333 _1_ MAC  --- 3 DSR 48 [0.00 -1 1] ------- [0:255 9:255 32 0] 2 [1 2] [0 2 0 0->0] [0 0 0 0->0]
r 103.292208000 _0_ MAC  --- 3 DSR 48 [0.00 -1 1] ------- [0:255 9:255 32 0] 2 [1 2] [0 2 0 0->0] [0 0 0 0->0]
r 103.292208000 _2_ MAC  --- 3 DSR 48 [0.00 -1 1] ------- [0:255 9:255 32 0] 2 [1 2] [0 2 0 0->0] [0 0 0 0->0]
r 103.292233000 _0_ RTR  --- 3 DSR 48 [0.00 -1 1] ------- [0:255 9:255 32 0] 2 [1 2] [0 2 0 0->0] [0 0 0 0->0]
r 103.292233000 _2_ RTR  --- 3 DSR 48 [0.00 -1 1] ------- [0:255 9:255 32 0] 2 [1 2] [0 2 0 0->0] [0 0 0 0->0]
f 103.292401070 _2_ RTR  --- 3 DSR 68 [0.00 -1 1] ------- [0:255 9:255 32 0] 3 [1 2] [0 2 0 0->0] [0 0 0 0->0]
Sdebug 103.30145 _0_ checking for route for dst 9
Sdebug 103.34835 _0_ checking for route for dst 9
Sdebug 103.40652 _0_ checking for route for dst 9
Sdebug 103.43996 _0_ checking for route for dst 9
Sdebug 103.49452 _0_ checking for route for dst 9
Sdebug 103.54558 _0_ checking for route for dst 9
Sdebug 103.57947 _0_ checking for route for dst 9
Sdebug 103.61943 _0_ checking for route for dst 9
Sdebug 103.66861 _0_ checking for route for dst 9
Sdebug 103.71742 _0_ checking for route for dst 9
Sdebug 103.76726 _0_ checking for route for dst 9
Sdebug 103.79917 _0_ checking for route for dst 9
Sdebug 103.84353 _0_ checking for route for dst 9
Sdebug 103.87663 _0_ checking for route for dst 9
Sdebug 103.90728 _0_ checking for route for dst 9
Sdebug 103.95425 _0_ checking for route for dst 9
Sdebug 103.99300 _0_ checking for route for dst 9
Sdebug 104.04557 _0_ checking for route for dst 9
Sdebug 104.10041 _0_ checking for route for dst 9
Sdebug 104.14988 _0_ checking for route for dst 9
Sdebug 104.20022 _0_ checking for route for dst 9
Sdebug 104.23895 _0_ checking for route for dst 9
Sdebug 104.28787 _0_ checking for route for dst 9
Sdebug 104.34339 _0_ checking for route for dst 9
Sdebug 104.37523 _0_ checking for route for dst 9
Sdebug 104.41500 _0_ checking for route for dst 9
Sdebug 104.46826 _0_ checking for route for dst 9
Sdebug 104.50867 _0_ checking for route for dst 9
Sdebug 104.56625 _0_ checking for route for dst 9
Sdebug 104.59961 _0_ checking for route for dst 9
s 104.630007333 _1_ MAC  --- 0 SYNC 9 [0.12 1 2] 
Sdebug 104.65871 _0_ checking for route for dst 9
Sdebug 104.69302 _0_ checking for route for dst 9
s 104.732208000 _2_ MAC  --- 3 DSR 68 [0.00 -1 2] ------- [0:255 9:255 32 0] 3 [1 2] [0 2 0 0->0] [0 0 0 0->0]
Sdebug 104.74746 _0_ checking for route for dst 9
r 104.775208667 _1_ MAC  --- 3 DSR 68 [0.00 -1 2] ------- [0:255 9:255 32 0] 3 [1 2] [0 2 0 0->0] [0 0 0 0->0]
r 104.775208667 _3_ MAC  --- 3 DSR 68 [0.00 -1 2] ------- [0:255 9:255 32 0] 3 [1 2] [0 2 0 0->0] [0 0 0 0->0]
r 104.775233667 _1_ RTR  --- 3 DSR 68 [0.00 -1 2] ------- [0:255 9:255 32 0] 3 [1 2] [0 2 0 0->0] [0 0 0 0->0]
r 104.775233667 _3_ RTR  --- 3 DSR 68 [0.00 -1 2] ------- [0:255 9:255 32 0] 3 [1 2] [0 2 0 0->0] [0 0 0 0->0]
f 104.776770195 _3_ RTR  --- 3 DSR 92 [0.00 -1 2] ------- [0:255 9:255 32 0] 4 [1 2] [0 2 0 0->0] [0 0 0 0->0]
Sdebug 104.79334 _0_ checking for route for dst 9
Sdebug 104.82368 _0_ checking for route for dst 9
Sdebug 104.87537 _0_ checking for route for dst 9
Sdebug 104.91324 _0_ checking for route for dst 9
Sdebug 104.96109 _0_ checking for route for dst 9
Sdebug 105.01996 _0_ checking for route for dst 9
Sdebug 105.06973 _0_ checking for route for dst 9
Sdebug 105.12832 _0_ checking for route for dst 9
Sdebug 105.18532 _0_ checking for route for dst 9
Sdebug 105.24495 _0_ checking for route for dst 9
Sdebug 105.29564 _0_ checking for route for dst 9
Sdebug 105.35162 _0_ checking for route for dst 9
Sdebug 105.38651 _0_ checking for route for dst 9
Sdebug 105.43192 _0_ checking for route for dst 9
Sdebug 105.46662 _0_ checking for route for dst 9
Sdebug 105.50141 _0_ checking for route for dst 9
Sdebug 105.55643 _0_ checking for route for dst 9
Sdebug 105.60445 _0_ checking for route for dst 9
Sdebug 105.65499 _0_ checking for route for dst 9
Sdebug 105.70126 _0_ checking for route for dst 9
Sdebug 105.74655 _0_ checking for route for dst 9
Sdebug 105.80650 _0_ checking for route for dst 9
Sdebug 105.85081 _0_ checking for route for dst 9
Sdebug 105.89060 _0_ checking for route for dst 9
Sdebug 105.93325 _0_ checking for route for dst 9
Sdebug 105.96447 _0_ checking for route for dst 9
Sdebug 105.99641 _0_ checking for route for dst 9
Sdebug 106.03849 _0_ checking for route for dst 9
s 106.055007333 _5_ MAC  --- 0 SYNC 9 [0.13 5 4] 
s 106.059006000 _8_ MAC  --- 0 SYNC 9 [0.12 8 9] 
Sdebug 106.07087 _0_ checking for route for dst 9
s 106.074008000 _0_ MAC  --- 0 SYNC 9 [0.11 0 1] 
Sdebug 106.12165 _0_ checking for route for dst 9
Sdebug 106.15363 _0_ checking for route for dst 9
Sdebug 106.18946 _0_ checking for route for dst 9
Sdebug 106.24101 _0_ checking for route for dst 9
Sdebug 106.27132 _0_ checking for route for dst 9
Sdebug 106.30972 _0_ checking for route for dst 9
Sdebug 106.34629 _0_ checking for route for dst 9
Sdebug 106.39551 _0_ checking for route for dst 9
Sdebug 106.43779 _0_ checking for route for dst 9
Sdebug 106.49206 _0_ checking for route for dst 9
Sdebug 106.54562 _0_ checking for route for dst 9
Sdebug 106.58897 _0_ checking for route for dst 9
Sdebug 106.62504 _0_ checking for route for dst 9
Sdebug 106.67124 _0_ checking for route for dst 9
Sdebug 106.73108 _0_ checking for route for dst 9
Sdebug 106.78376 _0_ checking for route for dst 9
Sdebug 106.82274 _0_ checking for route for dst 9
Sdebug 106.85300 _0_ checking for route for dst 9
Sdebug 106.91026 _0_ checking for route for dst 9
Sdebug 106.95128 _0_ checking for route for dst 9
Sdebug 107.00316 _0_ checking for route for dst 9
Sdebug 107.04862 _0_ checking for route for dst 9
Sdebug 107.08889 _0_ checking for route for dst 9
Sdebug 107.13966 _0_ checking for route for dst 9
Sdebug 107.16980 _0_ checking for route for dst 9
Sdebug 107.21275 _0_ checking for route for dst 9
Sdebug 107.25870 _0_ checking for route for dst 9
Sdebug 107.30927 _0_ checking for route for dst 9
Sdebug 107.34372 _0_ checking for route for dst 9
Sdebug 107.38422 _0_ checking for route for dst 9
Sdebug 107.43897 _0_ checking for route for dst 9
Sdebug 107.47779 _0_ checking for route for dst 9
s 107.488007333 _3_ MAC  --- 0 SYNC 9 [0.13 3 2] 
s 107.497006000 _8_ MAC  --- 0 SYNC 9 [0.12 8 9] 
Sdebug 107.51447 _0_ checking for route for dst 9
s 107.544207333 _3_ MAC  --- 3 DSR 92 [0.00 -1 3] ------- [0:255 9:255 32 0] 4 [1 2] [0 2 0 0->0] [0 0 0 0->0]
Sdebug 107.55927 _0_ checking for route for dst 9
r 107.587208000 _2_ MAC  --- 3 DSR 92 [0.00 -1 3] ------- [0:255 9:255 32 0] 4 [1 2] [0 2 0 0->0] [0 0 0 0->0]
r 107.587208000 _4_ MAC  --- 3 DSR 92 [0.00 -1 3] ------- [0:255 9:255 32 0] 4 [1 2] [0 2 0 0->0] [0 0 0 0->0]
r 107.587233000 _2_ RTR  --- 3 DSR 92 [0.00 -1 3] ------- [0:255 9:255 32 0] 4 [1 2] [0 2 0 0->0] [0 0 0 0->0]
r 107.587233000 _4_ RTR  --- 3 DSR 92 [0.00 -1 3] ------- [0:255 9:255 32 0] 4 [1 2] [0 2 0 0->0] [0 0 0 0->0]
f 107.592967044 _4_ RTR  --- 3 DSR 120 [0.00 -1 3] ------- [0:255 9:255 32 0] 5 [1 2] [0 2 0 0->0] [0 0 0 0->0]
Sdebug 107.61463 _0_ checking for route for dst 9
Sdebug 107.65469 _0_ checking for route for dst 9
Sdebug 107.68853 _0_ checking for route for dst 9
Sdebug 107.72235 _0_ checking for route for dst 9
Sdebug 107.77574 _0_ checking for route for dst 9
Sdebug 107.82839 _0_ checking for route for dst 9
Sdebug 107.85857 _0_ checking for route for dst 9
Sdebug 107.91535 _0_ checking for route for dst 9
Sdebug 107.95941 _0_ checking for route for dst 9
Sdebug 107.99118 _0_ checking for route for dst 9
Sdebug 108.02793 _0_ checking for route for dst 9
Sdebug 108.06983 _0_ checking for route for dst 9
Sdebug 108.11376 _0_ checking for route for dst 9
Sdebug 108.16195 _0_ checking for route for dst 9
Sdebug 108.21456 _0_ checking for route for dst 9
Sdebug 108.25064 _0_ checking for route for dst 9
Sdebug 108.30561 _0_ checking for route for dst 9
Sdebug 108.34393 _0_ checking for route for dst 9
Sdebug 108.37954 _0_ checking for route for dst 9
Sdebug 108.43779 _0_ checking for route for dst 9
Sdebug 108.46859 _0_ checking for route for dst 9
Sdebug 108.50912 _0_ checking for route for dst 9
Sdebug 108.54272 _0_ checking for route for dst 9
Sdebug 108.59928 _0_ checking for route for dst 9
Sdebug 108.65344 _0_ checking for route for dst 9
Sdebug 108.69008 _0_ checking for route for dst 9
Sdebug 108.74105 _0_ checking for route for dst 9
Sdebug 108.77488 _0_ checking for route for dst 9
Sdebug 108.80633 _0_ checking for route for dst 9
Sdebug 108.85353 _0_ checking for route for dst 9
Sdebug 108.88479 _0_ checking for route for dst 9
s 108.918008000 _6_ MAC  --- 0 SYNC 9 [0.13 6 5] 
Sdebug 108.92413 _0_ checking for route for dst 9
s 108.936006667 _9_ MAC  --- 0 SYNC 9 [0.11 9 8] 
s 108.948008667 _3_ MAC  --- 0 SYNC 9 [0.10 3 2] 
Sdebug 108.97602 _0_ checking for route for dst 9
s 109.005208667 _3_ MAC  --- 3 DSR 92 [0.00 -1 3] ------- [0:255 9:255 32 0] 4 [1 2] [0 2 0 0->0] [0 0 0 0->0]
Sdebug 109.02543 _0_ checking for route for dst 9
r 109.048209333 _2_ MAC  --- 3 DSR 92 [0.00 -1 3] ------- [0:255 9:255 32 0] 4 [1 2] [0 2 0 0->0] [0 0 0 0->0]
r 109.048209333 _4_ MAC  --- 3 DSR 92 [0.00 -1 3] ------- [0:255 9:255 32 0] 4 [1 2] [0 2 0 0->0] [0 0 0 0->0]
r 109.048234333 _2_ RTR  --- 3 DSR 92 [0.00 -1 3] ------- [0:255 9:255 32 0] 4 [1 2] [0 2 0 0->0] [0 0 0 0->0]
r 109.048234333 _4_ RTR  --- 3 DSR 92 [0.00 -1 3] ------- [0:255 9:255 32 0] 4 [1 2] [0 2 0 0->0] [0 0 0 0->0]
Sdebug 109.08232 _0_ checking for route for dst 9
Sdebug 109.13349 _0_ checking for route for dst 9
Sdebug 109.19021 _0_ checking for route for dst 9
Sdebug 109.23309 _0_ checking for route for dst 9
Sdebug 109.28784 _0_ checking for route for dst 9
Sdebug 109.33157 _0_ checking for route for dst 9
Sdebug 109.37876 _0_ checking for route for dst 9
Sdebug 109.41581 _0_ checking for route for dst 9
Sdebug 109.47083 _0_ checking for route for dst 9
Sdebug 109.51899 _0_ checking for route for dst 9
Sdebug 109.57512 _0_ checking for route for dst 9
Sdebug 109.62866 _0_ checking for route for dst 9
Sdebug 109.67251 _0_ checking for route for dst 9
Sdebug 109.71130 _0_ checking for route for dst 9
Sdebug 109.74954 _0_ checking for route for dst 9
Sdebug 109.80863 _0_ checking for route for dst 9
Sdebug 109.84453 _0_ checking for route for dst 9
Sdebug 109.88718 _0_ checking for route for dst 9
Sdebug 109.92990 _0_ checking for route for dst 9
Sdebug 109.98921 _0_ checking for route for dst 9
Sdebug 110.04791 _0_ checking for route for dst 9
Sdebug 110.09373 _0_ checking for route for dst 9
Sdebug 110.13962 _0_ checking for route for dst 9
Sdebug 110.19531 _0_ checking for route for dst 9
Sdebug 110.24525 _0_ checking for route for dst 9
Sdebug 110.29562 _0_ checking for route for dst 9
Sdebug 110.34530 _0_ checking for route for dst 9
s 110.365006667 _7_ MAC  --- 0 SYNC 9 [0.12 7 8] 
s 110.379008000 _2_ MAC  --- 0 SYNC 9 [0.10 2 1] 
Sdebug 110.40215 _0_ checking for route for dst 9
Sdebug 110.46153 _0_ checking for route for dst 9
Sdebug 110.51785 _0_ checking for route for dst 9
Sdebug 110.56845 _0_ checking for route for dst 9
Sdebug 110.61687 _0_ checking for route for dst 9
Sdebug 110.66850 _0_ checking for route for dst 9
Sdebug 110.70348 _0_ checking for route for dst 9
Sdebug 110.74038 _0_ checking for route for dst 9
Sdebug 110.79288 _0_ checking for route for dst 9
Sdebug 110.83018 _0_ checking for route for dst 9
Sdebug 110.87636 _0_ checking for route for dst 9
Sdebug 110.93310 _0_ checking for route for dst 9
Sdebug 110.97104 _0_ checking for route for dst 9
Sdebug 111.00776 _0_ checking for route for dst 9
Sdebug 111.04388 _0_ checking for route for dst 9
Sdebug 111.09386 _0_ checking for route for dst 9
Sdebug 111.15025 _0_ checking for route for dst 9
Sdebug 111.18716 _0_ checking for route for dst 9
Sdebug 111.23378 _0_ checking for route for dst 9
Sdebug 111.29296 _0_ checking for route for dst 9
Sdebug 111.33090 _0_ checking for route for dst 9
Sdebug 111.37584 _0_ checking for route for dst 9
Sdebug 111.40890 _0_ checking for route for dst 9
Sdebug 111.44396 _0_ checking for route for dst 9
Sdebug 111.48429 _0_ checking for route for dst 9
Sdebug 111.53047 _0_ checking for route for dst 9
Sdebug 111.56295 _0_ checking for route for dst 9
Sdebug 111.61437 _0_ checking for route for dst 9
Sdebug 111.65957 _0_ checking for route for dst 9
Sdebug 111.70765 _0_ checking for route for dst 9
Sdebug 111.74387 _0_ checking for route for dst 9
Sdebug 111.79030 _0_ checking for route for dst 9
s 111.804008000 _4_ MAC  --- 0 SYNC 9 [0.11 4 5] 
Sdebug 111.82331 _0_ checking for route for dst 9
s 111.843208000 _4_ MAC  --- 3 DSR 120 [0.00 -1 4] ------- [0:255 9:255 32 0] 5 [1 2] [0 2 0 0->0] [0 0 0 0->0]
Sdebug 111.86467 _0_ checking for route for dst 9
r 111.886208667 _3_ MAC  --- 3 DSR 120 [0.00 -1 4] ------- [0:255 9:255 32 0] 5 [1 2] [0 2 0 0->0] [0 0 0 0->0]
r 111.886208667 _5_ MAC  --- 3 DSR 120 [0.00 -1 4] ------- [0:255 9:255 32 0] 5 [1 2] [0 2 0 0->0] [0 0 0 0->0]
r 111.886233667 _3_ RTR  --- 3 DSR 120 [0.00 -1 4] ------- [0:255 9:255 32 0] 5 [1 2] [0 2 0 0->0] [0 0 0 0->0]
r 111.886233667 _5_ RTR  --- 3 DSR 120 [0.00 -1 4] ------- [0:255 9:255 32 0] 5 [1 2] [0 2 0 0->0] [0 0 0 0->0]
f 111.894332464 _5_ RTR  --- 3 DSR 152 [0.00 -1 4] ------- [0:255 9:255 32 0] 6 [1 2] [0 2 0 0->0] [0 0 0 0->0]
Sdebug 111.92174 _0_ checking for route for dst 9
Sdebug 111.95562 _0_ checking for route for dst 9
Sdebug 112.01026 _0_ checking for route for dst 9
Sdebug 112.05236 _0_ checking for route for dst 9
Sdebug 112.08746 _0_ checking for route for dst 9
Sdebug 112.13276 _0_ checking for route for dst 9
Sdebug 112.17391 _0_ checking for route for dst 9
Sdebug 112.22641 _0_ checking for route for dst 9
Sdebug 112.27578 _0_ checking for route for dst 9
Sdebug 112.31220 _0_ checking for route for dst 9
Sdebug 112.37198 _0_ checking for route for dst 9
Sdebug 112.42844 _0_ checking for route for dst 9
Sdebug 112.47266 _0_ checking for route for dst 9
Sdebug 112.52638 _0_ checking for route for dst 9
Sdebug 112.56977 _0_ checking for route for dst 9
Sdebug 112.60302 _0_ checking for route for dst 9
Sdebug 112.63995 _0_ checking for route for dst 9
Sdebug 112.67962 _0_ checking for route for dst 9
Sdebug 112.73587 _0_ checking for route for dst 9
Sdebug 112.77779 _0_ checking for route for dst 9
Sdebug 112.83027 _0_ checking for route for dst 9
Sdebug 112.86901 _0_ checking for route for dst 9
Sdebug 112.90614 _0_ checking for route for dst 9
Sdebug 112.95787 _0_ checking for route for dst 9
Sdebug 113.01047 _0_ checking for route for dst 9
Sdebug 113.06572 _0_ checking for route for dst 9
Sdebug 113.11680 _0_ checking for route for dst 9
Sdebug 113.16819 _0_ checking for route for dst 9
Sdebug 113.20488 _0_ checking for route for dst 9
s 113.217008000 _4_ MAC  --- 0 SYNC 9 [0.13 4 5] 
Sdebug 113.25636 _0_ checking for route for dst 9
Sdebug 113.28689 _0_ checking for route for dst 9
s 113.309208000 _4_ MAC  --- 3 DSR 120 [0.00 -1 4] ------- [0:255 9:255 32 0] 5 [1 2] [0 2 0 0->0] [0 0 0 0->0]
Sdebug 113.32428 _0_ checking for route for dst 9
r 113.352208667 _3_ MAC  --- 3 DSR 120 [0.00 -1 4] ------- [0:255 9:255 32 0] 5 [1 2] [0 2 0 0->0] [0 0 0 0->0]
r 113.352208667 _5_ MAC  --- 3 DSR 120 [0.00 -1 4] ------- [0:255 9:255 32 0] 5 [1 2] [0 2 0 0->0] [0 0 0 0->0]
r 113.352233667 _3_ RTR  --- 3 DSR 120 [0.00 -1 4] ------- [0:255 9:255 32 0] 5 [1 2] [0 2 0 0->0] [0 0 0 0->0]
r 113.352233667 _5_ RTR  --- 3 DSR 120 [0.00 -1 4] ------- [0:255 9:255 32 0] 5 [1 2] [0 2 0 0->0] [0 0 0 0->0]
Sdebug 113.37061 _0_ checking for route for dst 9
Sdebug 113.42102 _0_ checking for route for dst 9
Sdebug 113.47406 _0_ checking for route for dst 9
Sdebug 113.51447 _0_ checking for route for dst 9
Sdebug 113.56663 _0_ checking for route for dst 9
Sdebug 113.61239 _0_ checking for route for dst 9
Sdebug 113.65732 _0_ checking for route for dst 9
Sdebug 113.70169 _0_ checking for route for dst 9
Sdebug 113.75132 _0_ checking for route for dst 9
Sdebug 113.80927 _0_ checking for route for dst 9
Sdebug 113.84582 _0_ checking for route for dst 9
Sdebug 113.88861 _0_ checking for route for dst 9
Sdebug 113.94196 _0_ checking for route for dst 9
Sdebug 113.98170 _0_ checking for route for dst 9
Sdebug 114.01587 _0_ checking for route for dst 9
Sdebug 114.05392 _0_ checking for route for dst 9
Sdebug 114.10038 _0_ checking for route for dst 9
Sdebug 114.13772 _0_ checking for route for dst 9
Sdebug 114.16908 _0_ checking for route for dst 9
Sdebug 114.22456 _0_ checking for route for dst 9
Sdebug 114.27869 _0_ checking for route for dst 9
Sdebug 114.31123 _0_ checking for route for dst 9
Sdebug 114.36563 _0_ checking for route for dst 9
Sdebug 114.40220 _0_ checking for route for dst 9
Sdebug 114.43947 _0_ checking for route for dst 9
Sdebug 114.49098 _0_ checking for route for dst 9
Sdebug 114.54397 _0_ checking for route for dst 9
Sdebug 114.57832 _0_ checking for route for dst 9
Sdebug 114.62386 _0_ checking for route for dst 9
s 114.651007333 _6_ MAC  --- 0 SYNC 9 [0.13 6 5] 
Sdebug 114.67419 _0_ checking for route for dst 9
Sdebug 114.71897 _0_ checking for route for dst 9
s 114.752208667 _5_ MAC  --- 3 DSR 152 [0.00 -1 5] ------- [0:255 9:255 32 0] 6 [1 2] [0 2 0 0->0] [0 0 0 0->0]
Sdebug 114.75296 _0_ checking for route for dst 9
Sdebug 114.79260 _0_ checking for route for dst 9
r 114.795209333 _4_ MAC  --- 3 DSR 152 [0.00 -1 5] ------- [0:255 9:255 32 0] 6 [1 2] [0 2 0 0->0] [0 0 0 0->0]
r 114.795209333 _6_ MAC  --- 3 DSR 152 [0.00 -1 5] ------- [0:255 9:255 32 0] 6 [1 2] [0 2 0 0->0] [0 0 0 0->0]
r 114.795234333 _4_ RTR  --- 3 DSR 152 [0.00 -1 5] ------- [0:255 9:255 32 0] 6 [1 2] [0 2 0 0->0] [0 0 0 0->0]
r 114.795234333 _6_ RTR  --- 3 DSR 152 [0.00 -1 5] ------- [0:255 9:255 32 0] 6 [1 2] [0 2 0 0->0] [0 0 0 0->0]
f 114.796163986 _6_ RTR  --- 3 DSR 188 [0.00 -1 5] ------- [0:255 9:255 32 0] 7 [1 2] [0 2 0 0->0] [0 0 0 0->0]
Sdebug 114.84402 _0_ checking for route for dst 9
Sdebug 114.87859 _0_ checking for route for dst 9
Sdebug 114.93796 _0_ checking for route for dst 9
Sdebug 114.98473 _0_ checking for route for dst 9
Sdebug 115.02376 _0_ checking for route for dst 9
Sdebug 115.05825 _0_ checking for route for dst 9
Sdebug 115.09754 _0_ checking for route for dst 9
Sdebug 115.12798 _0_ checking for route for dst 9
Sdebug 115.17128 _0_ checking for route for dst 9
Sdebug 115.22448 _0_ checking for route for dst 9
Sdebug 115.27506 _0_ checking for route for dst 9
Sdebug 115.32504 _0_ checking for route for dst 9
Sdebug 115.36241 _0_ checking for route for dst 9
Sdebug 115.41434 _0_ checking for route for dst 9
Sdebug 115.45924 _0_ checking for route for dst 9
Sdebug 115.50108 _0_ checking for route for dst 9
Sdebug 115.53885 _0_ checking for route for dst 9
Sdebug 115.58095 _0_ checking for route for dst 9
Sdebug 115.62771 _0_ checking for route for dst 9
Sdebug 115.68554 _0_ checking for route for dst 9
Sdebug 115.74038 _0_ checking for route for dst 9
Sdebug 115.79105 _0_ checking for route for dst 9
Sdebug 115.84567 _0_ checking for route for dst 9
Sdebug 115.90279 _0_ checking for route for dst 9
Sdebug 115.95251 _0_ checking for route for dst 9
Sdebug 115.98641 _0_ checking for route for dst 9
Sdebug 116.03260 _0_ checking for route for dst 9
Sdebug 116.07100 _0_ checking for route for dst 9
s 116.108008667 _7_ MAC  --- 0 SYNC 9 [0.11 7 8] 
Sdebug 116.11914 _0_ checking for route for dst 9