v 0 eval {set sim_annotation {1073741824 switch tree type}}
v 1 eval {set sim_annotation {1 1 join-group 1073741824}}
+ 1.003392 0 1 cbr 536 ------- 2 0.0.0.1 256.0.0.0 234 234
- 1.003392 0 1 cbr 536 ------- 2 0.0.0.1 256.0.0.0 234 234
r 1.00625 0 1 cbr 536 ------- 2 0.0.0.1 256.0.0.0 234 234
+ 1.00768 0 1 cbr 536 ------- 2 0.0.0.1 256.0.0.0 235 235
- 1.00768 0 1 cbr 536 ------- 2 0.0.0.1 256.0.0.0 235 235
r 1.010538 0 1 cbr 536 ------- 2 0.0.0.1 256.0.0.0 235 235
+ 1.011968 0 1 cbr 536 ------- 2 0.0.0.1 256.0.0.0 236 236
- 1.011968 0 1 cbr 536 ------- 2 0.0.0.1 256.0.0.0 236 236
r 1.014826 0 1 cbr 536 ------- 2 0.0.0.1 256.0.0.0 236 236
+ 1.016256 0 1 cbr 536 ------- 2 0.0.0.1 256.0.0.0 237 237
- 1.016256 0 1 cbr 536 ------- 2 0.0.0.1 256.0.0.0 237 237
r 1.019114 0 1 cbr 536 ------- 2 0.0.0.1 256.0.0.0 237 237
+ 1.020544 0 1 cbr 536 ------- 2 0.0.0.1 256.0.0.0 238 238
- 1.020544 0 1 cbr 536 ------- 2 0.0.0.1 256.0.0.0 238 238
r 1.023402 0 1 cbr 536 ------- 2 0.0.0.1 256.0.0.0 238 238
+ 1.024832 0 1 cbr 536 ------- 2 0.0.0.1 256.0.0.0 239 239
- 1.024832 0 1 cbr 536 ------- 2 0.0.0.1 256.0.0.0 239 239
r 1.02769 0 1 cbr 536 ------- 2 0.0.0.1 256.0.0.0 239 239
+ 1.02912 0 1 cbr 536 ------- 2 0.0.0.1 256.0.0.0 240 240
- 1.02912 0 1 cbr 536 ------- 2 0.0.0.1 256.0.0.0 240 240
r 1.031978 0 1 cbr 536 ------- 2 0.0.0.1 256.0.0.0 240 240
+ 1.033408 0 1 cbr 536 ------- 2 0.0.0.1 256.0.0.0 241 241
- 1.033408 0 1 cbr 536 ------- 2 0.0.0.1 256.0.0.0 241 241
r 1.036266 0 1 cbr 536 ------- 2 0.0.0.1 256.0.0.0 241 241
+ 1.037696 0 1 cbr 536 ------- 2 0.0.0.1 256.0.0.0 242 242
- 1.037696 0 1 cbr 536 ------- 2 0.0.0.1 256.0.0.0 242 242
r 1.040554 0 1 cbr 536 ------- 2 0.0.0.1 256.0.0.0 242 242
+ 1.041984 0 1 cbr 536 ------- 2 0.0.0.1 256.0.0.0 243 243
- 1.041984 0 1 cbr 536 ------- 2 0.0.0.1 256.0.0.0 243 243
r 1.044842 0 1 cbr 536 ------- 2 0.0.0.1 256.0.0.0 243 243
+ 1.046272 0 1 cbr 536 ------- 2 0.0.0.1 256.0.0.0 244 244
- 1.046272 0 1 cbr 536 ------- 2 0.0.0.1 256.0.0.0 244 244
r 1.04913 0 1 cbr 536 ------- 2 0.0.0.1 256.0.0.0 244 244
+ 1.05056 0 1 cbr 536 ------- 2 0.0.0.1 256.0.0.0 245 245
- 1.05056 0 1 cbr 536 ------- 2 0.0.0.1 256.0.0.0 245 245
r 1.053418 0 1 cbr 536 ------- 2 0.0.0.1 256.0.0.0 245 245
+ 1.054848 0 1 cbr 536 ------- 2 0.0.0.1 256.0.0.0 246 246
- 1.054848 0 1 cbr 536 ------- 2 0.0.0.1 256.0.0.0 246 246
r 1.057706 0 1 cbr 536 ------- 2 0.0.0.1 256.0.0.0 246 246
+ 1.059136 0 1 cbr 536 ------- 2 0.0.0.1 256.0.0.0 247 247
- 1.059136 0 1 cbr 536 ------- 2 0.0.0.1 256.0.0.0 247 247
r 1.061994 0 1 cbr 536 ------- 2 0.0.0.1 256.0.0.0 247 247
+ 1.063424 0 1 cbr 536 ------- 2 0.0.0.1 256.0.0.0 248 248
- 1.063424 0 1 cbr 536 ------- 2 0.0.0.1 256.0.0.0 248 248
r 1.066282 0 1 cbr 536 ------- 2 0.0.0.1 256.0.0.0 248 248
+ 1.067712 0 1 cbr 536 ------- 2 0.0.0.1 256.0.0.0 249 249
- 1.067712 0 1 cbr 536 ------- 2 0.0.0.1 256.0.0.0 249 249
r 1.07057 0 1 cbr 536 ------- 2 0.0.0.1 256.0.0.0 249 249
+ 1.072 0 1 cbr 536 ------- 2 0.0.0.1 256.0.0.0 250 250
- 1.072 0 1 cbr 536 ------- 2 0.0.0.1 256.0.0.0 250 250
r 1.074858 0 1 cbr 536 ------- 2 0.0.0.1 256.0.0.0 250 250
+ 1.076288 0 1 cbr 536 ------- 2 0.0.0.1 256.0.0.0 251 251
- 1.076288 0 1 cbr 536 ------- 2 0.0.0.1 256.0.0.0 251 251
r 1.079146 0 1 cbr 536 ------- 2 0.0.0.1 256.0.0.0 251 251
+ 1.080576 0 1 cbr 536 ------- 2 0.0.0.1 256.0.0.0 252 252
- 1.080576 0 1 cbr 536 ------- 2 0.0.0.1 256.0.0.0 252 252
r 1.083434 0 1 cbr 536 ------- 2 0.0.0.1 256.0.0.0 252 252
+ 1.084864 0 1 cbr 536 ------- 2 0.0.0.1 256.0.0.0 253 253
- 1.084864 0 1 cbr 536 ------- 2 0.0.0.1 256.0.0.0 253 253
r 1.087722 0 1 cbr 536 ------- 2 0.0.0.1 256.0.0.0 253 253
+ 1.089152 0 1 cbr 536 ------- 2 0.0.0.1 256.0.0.0 254 254
- 1.089152 0 1 cbr 536 ------- 2 0.0.0.1 256.0.0.0 254 254
r 1.09201 0 1 cbr 536 ------- 2 0.0.0.1 256.0.0.0 254 254
+ 1.09344 0 1 cbr 536 ------- 2 0.0.0.1 256.0.0.0 255 255
- 1.09344 0 1 cbr 536 ------- 2 0.0.0.1 256.0.0.0 255 255
r 1.096298 0 1 cbr 536 ------- 2 0.0.0.1 256.0.0.0 255 255
+ 1.097728 0 1 cbr 536 ------- 2 0.0.0.1 256.0.0.0 256 256
- 1.097728 0 1 cbr 536 ------- 2 0.0.0.1 256.0.0.0 256 256
r 1.100586 0 1 cbr 536 ------- 2 0.0.0.1 256.0.0.0 256 256
+ 1.102016 0 1 cbr 536 ------- 2 0.0.0.1 256.0.0.0 257 257
- 1.102016 0 1 cbr 536 ------- 2 0.0.0.1 256.0.0.0 257 257
r 1.104874 0 1 cbr 536 ------- 2 0.0.0.1 256.0.0.0 257 257
+ 1.106304 0 1 cbr 536 ------- 2 0.0.0.1 256.0.0.0 258 258
- 1.106304 0 1 cbr 536 ------- 2 0.0.0.1 256.0.0.0 258 258
r 1.109162 0 1 cbr 536 ------- 2 0.0.0.1 256.0.0.0 258 258
+ 1.110592 0 1 cbr 536 ------- 2 0.0.0.1 256.0.0.0 259 259
- 1.110592 0 1 cbr 536 ------- 2 0.0.0.1 256.0.0.0 259 259
r 1.11345 0 1 cbr 536 ------- 2 0.0.0.1 256.0.0.0 259 259
+ 1.11488 0 1 cbr 536 ------- 2 0.0.0.1 256.0.0.0 260 260
- 1.11488 0 1 cbr 536 ------- 2 0.0.0.1 256.0.0.0 260 260
r 1.117738 0 1 cbr 536 ------- 2 0.0.0.1 256.0.0.0 260 260
+ 1.119168 0 1 cbr 536 ------- 2 0.0.0.1 256.0.0.0 261 261
- 1.119168 0 1 cbr 536 ------- 2 0.0.0.1 256.0.0.0 261 261
r 1.122026 0 1 cbr 536 ------- 2 0.0.0.1 256.0.0.0 261 261
+ 1.123456 0 1 cbr 536 ------- 2 0.0.0.1 256.0.0.0 262 262
- 1.123456 0 1 cbr 536 ------- 2 0.0.0.1 256.0.0.0 262 262
r 1.126314 0 1 cbr 536 ------- 2 0.0.0.1 256.0.0.0 262 262
+ 1.127744 0 1 cbr 536 ------- 2 0.0.0.1 256.0.0.0 263 263
- 1.127744 0 1 cbr 536 ------- 2 0.0.0.1 256.0.0.0 263 263
r 1.130602 0 1 cbr 536 ------- 2 0.0.0.1 256.0.0.0 263 263
+ 1.132032 0 1 cbr 536 ------- 2 0.0.0.1 256.0.0.0 264 264
- 1.132032 0 1 cbr 536 ------- 2 0.0.0.1 256.0.0.0 264 264
r 1.13489 0 1 cbr 536 ------- 2 0.0.0.1 256.0.0.0 264 264
+ 1.13632 0 1 cbr 536 ------- 2 0.0.0.1 256.0.0.0 265 265
- 1.13632 0 1 cbr 536 ------- 2 0.0.0.1 256.0.0.0 265 265
r 1.139178 0 1 cbr 536 ------- 2 0.0.0.1 256.0.0.0 265 265
+ 1.140608 0 1 cbr 536 ------- 2 0.0.0.1 256.0.0.0 266 266
- 1.140608 0 1 cbr 536 ------- 2 0.0.0.1 256.0.0.0 266 266
r 1.143466 0 1 cbr 536 ------- 2 0.0.0.1 256.0.0.0 266 266
+ 1.144896 0 1 cbr 536 ------- 2 0.0.0.1 256.0.0.0 267 267
- 1.144896 0 1 cbr 536 ------- 2 0.0.0.1 256.0.0.0 267 267
r 1.147754 0 1 cbr 536 ------- 2 0.0.0.1 256.0.0.0 267 267
+ 1.149184 0 1 cbr 536 ------- 2 0.0.0.1 256.0.0.0 268 268
- 1.149184 0 1 cbr 536 ------- 2 0.0.0.1 256.0.0.0 268 268
r 1.152042 0 1 cbr 536 ------- 2 0.0.0.1 256.0.0.0 268 268
+ 1.153472 0 1 cbr 536 ------- 2 0.0.0.1 256.0.0.0 269 269
- 1.153472 0 1 cbr 536 ------- 2 0.0.0.1 256.0.0.0 269 269
r 1.15633 0 1 cbr 536 ------- 2 0.0.0.1 256.0.0.0 269 269
+ 1.15776 0 1 cbr 536 ------- 2 0.0.0.1 256.0.0.0 270 270
- 1.15776 0 1 cbr 536 ------- 2 0.0.0.1 256.0.0.0 270 270
r 1.160618 0 1 cbr 536 ------- 2 0.0.0.1 256.0.0.0 270 270
+ 1.162048 0 1 cbr 536 ------- 2 0.0.0.1 256.0.0.0 271 271
- 1.162048 0 1 cbr 536 ------- 2 0.0.0.1 256.0.0.0 271 271
r 1.164906 0 1 cbr 536 ------- 2 0.0.0.1 256.0.0.0 271 271
+ 1.166336 0 1 cbr 536 ------- 2 0.0.0.1 256.0.0.0 272 272
- 1.166336 0 1 cbr 536 ------- 2 0.0.0.1 256.0.0.0 272 272
r 1.169194 0 1 cbr 536 ------- 2 0.0.0.1 256.0.0.0 272 272
+ 1.170624 0 1 cbr 536 ------- 2 0.0.0.1 256.0.0.0 273 273
- 1.170624 0 1 cbr 536 ------- 2 0.0.0.1 256.0.0.0 273 273
r 1.173482 0 1 cbr 536 ------- 2 0.0.0.1 256.0.0.0 273 273
+ 1.174912 0 1 cbr 536 ------- 2 0.0.0.1 256.0.0.0 274 274
- 1.174912 0 1 cbr 536 ------- 2 0.0.0.1 256.0.0.0 274 274
r 1.17777 0 1 cbr 536 ------- 2 0.0.0.1 256.0.0.0 274 274
+ 1.1792 0 1 cbr 536 ------- 2 0.0.0.1 256.0.0.0 275 275
- 1.1792 0 1 cbr 536 ------- 2 0.0.0.1 256.0.0.0 275 275
r 1.182058 0 1 cbr 536 ------- 2 0.0.0.1 256.0.0.0 275 275
+ 1.183488 0 1 cbr 536 ------- 2 0.0.0.1 256.0.0.0 276 276
- 1.183488 0 1 cbr 536 ------- 2 0.0.0.1 256.0.0.0 276 276
r 1.186346 0 1 cbr 536 ------- 2 0.0.0.1 256.0.0.0 276 276
+ 1.187776 0 1 cbr 536 ------- 2 0.0.0.1 256.0.0.0 277 277
- 1.187776 0 1 cbr 536 ------- 2 0.0.0.1 256.0.0.0 277 277
r 1.190634 0 1 cbr 536 ------- 2 0.0.0.1 256.0.0.0 277 277
+ 1.192064 0 1 cbr 536 ------- 2 0.0.0.1 256.0.0.0 278 278
- 1.192064 0 1 cbr 536 ------- 2 0.0.0.1 256.0.0.0 278 278
r 1.194922 0 1 cbr 536 ------- 2 0.0.0.1 256.0.0.0 278 278
+ 1.196352 0 1 cbr 536 ------- 2 0.0.0.1 256.0.0.0 279 279
- 1.196352 0 1 cbr 536 ------- 2 0.0.0.1 256.0.0.0 279 279
r 1.19921 0 1 cbr 536 ------- 2 0.0.0.1 256.0.0.0 279 279
+ 1.20064 0 1 cbr 536 ------- 2 0.0.0.1 256.0.0.0 280 280
- 1.20064 0 1 cbr 536 ------- 2 0.0.0.1 256.0.0.0 280 280
r 1.203498 0 1 cbr 536 ------- 2 0.0.0.1 256.0.0.0 280 280
+ 1.204928 0 1 cbr 536 ------- 2 0.0.0.1 256.0.0.0 281 281
- 1.204928 0 1 cbr 536 ------- 2 0.0.0.1 256.0.0.0 281 281
r 1.207786 0 1 cbr 536 ------- 2 0.0.0.1 256.0.0.0 281 281
+ 1.209216 0 1 cbr 536 ------- 2 0.0.0.1 256.0.0.0 282 282
- 1.209216 0 1 cbr 536 ------- 2 0.0.0.1 256.0.0.0 282 282
r 1.212074 0 1 cbr 536 ------- 2 0.0.0.1 256.0.0.0 282 282
+ 1.213504 0 1 cbr 536 ------- 2 0.0.0.1 256.0.0.0 283 283
- 1.213504 0 1 cbr 536 ------- 2 0.0.0.1 256.0.0.0 283 283
r 1.216362 0 1 cbr 536 ------- 2 0.0.0.1 256.0.0.0 283 283
+ 1.217792 0 1 cbr 536 ------- 2 0.0.0.1 256.0.0.0 284 284
- 1.217792 0 1 cbr 536 ------- 2 0.0.0.1 256.0.0.0 284 284
r 1.22065 0 1 cbr 536 ------- 2 0.0.0.1 256.0.0.0 284 284
+ 1.22208 0 1 cbr 536 ------- 2 0.0.0.1 256.0.0.0 285 285
- 1.22208 0 1 cbr 536 ------- 2 0.0.0.1 256.0.0.0 285 285
r 1.224938 0 1 cbr 536 ------- 2 0.0.0.1 256.0.0.0 285 285
+ 1.226368 0 1 cbr 536 ------- 2 0.0.0.1 256.0.0.0 286 286
- 1.226368 0 1 cbr 536 ------- 2 0.0.0.1 256.0.0.0 286 286
r 1.229226 0 1 cbr 536 ------- 2 0.0.0.1 256.0.0.0 286 286
+ 1.230656 0 1 cbr 536 ------- 2 0.0.0.1 256.0.0.0 287 287
- 1.230656 0 1 cbr 536 ------- 2 0.0.0.1 256.0.0.0 287 287
r 1.233514 0 1 cbr 536 ------- 2 0.0.0.1 256.0.0.0 287 287
+ 1.234944 0 1 cbr 536 ------- 2 0.0.0.1 256.0.0.0 288 288
- 1.234944 0 1 cbr 536 ------- 2 0.0.0.1 256.0.0.0 288 288
r 1.237802 0 1 cbr 536 ------- 2 0.0.0.1 256.0.0.0 288 288
+ 1.239232 0 1 cbr 536 ------- 2 0.0.0.1 256.0.0.0 289 289
- 1.239232 0 1 cbr 536 ------- 2 0.0.0.1 256.0.0.0 289 289
r 1.24209 0 1 cbr 536 ------- 2 0.0.0.1 256.0.0.0 289 289
+ 1.24352 0 1 cbr 536 ------- 2 0.0.0.1 256.0.0.0 290 290
- 1.24352 0 1 cbr 536 ------- 2 0.0.0.1 256.0.0.0 290 290
r 1.246378 0 1 cbr 536 ------- 2 0.0.0.1 256.0.0.0 290 290
+ 1.247808 0 1 cbr 536 ------- 2 0.0.0.1 256.0.0.0 291 291
- 1.247808 0 1 cbr 536 ------- 2 0.0.0.1 256.0.0.0 291 291
r 1.250666 0 1 cbr 536 ------- 2 0.0.0.1 256.0.0.0 291 291
+ 1.252096 0 1 cbr 536 ------- 2 0.0.0.1 256.0.0.0 292 292
- 1.252096 0 1 cbr 536 ------- 2 0.0.0.1 256.0.0.0 292 292
r 1.254954 0 1 cbr 536 ------- 2 0.0.0.1 256.0.0.0 292 292
+ 1.256384 0 1 cbr 536 ------- 2 0.0.0.1 256.0.0.0 293 293
- 1.256384 0 1 cbr 536 ------- 2 0.0.0.1 256.0.0.0 293 293
r 1.259242 0 1 cbr 536 ------- 2 0.0.0.1 256.0.0.0 293 293
+ 1.260672 0 1 cbr 536 ------- 2 0.0.0.1 256.0.0.0 294 294
- 1.260672 0 1 cbr 536 ------- 2 0.0.0.1 256.0.0.0 294 294
r 1.26353 0 1 cbr 536 ------- 2 0.0.0.1 256.0.0.0 294 294
+ 1.26496 0 1 cbr 536 ------- 2 0.0.0.1 256.0.0.0 295 295
- 1.26496 0 1 cbr 536 ------- 2 0.0.0.1 256.0.0.0 295 295
r 1.267818 0 1 cbr 536 ------- 2 0.0.0.1 256.0.0.0 295 295
+ 1.269248 0 1 cbr 536 ------- 2 0.0.0.1 256.0.0.0 296 296
- 1.269248 0 1 cbr 536 ------- 2 0.0.0.1 256.0.0.0 296 296
r 1.272106 0 1 cbr 536 ------- 2 0.0.0.1 256.0.0.0 296 296
+ 1.273536 0 1 cbr 536 ------- 2 0.0.0.1 256.0.0.0 297 297
- 1.273536 0 1 cbr 536 ------- 2 0.0.0.1 256.0.0.0 297 297
r 1.276394 0 1 cbr 536 ------- 2 0.0.0.1 256.0.0.0 297 297
+ 1.277824 0 1 cbr 536 ------- 2 0.0.0.1 256.0.0.0 298 298
- 1.277824 0 1 cbr 536 ------- 2 0.0.0.1 256.0.0.0 298 298
r 1.280682 0 1 cbr 536 ------- 2 0.0.0.1 256.0.0.0 298 298
+ 1.282112 0 1 cbr 536 ------- 2 0.0.0.1 256.0.0.0 299 299
- 1.282112 0 1 cbr 536 ------- 2 0.0.0.1 256.0.0.0 299 299
r 1.28497 0 1 cbr 536 ------- 2 0.0.0.1 256.0.0.0 299 299
+ 1.2864 0 1 cbr 536 ------- 2 0.0.0.1 256.0.0.0 300 300
- 1.2864 0 1 cbr 536 ------- 2 0.0.0.1 256.0.0.0 300 300
r 1.289258 0 1 cbr 536 ------- 2 0.0.0.1 256.0.0.0 300 300
+ 1.290688 0 1 cbr 536 ------- 2 0.0.0.1 256.0.0.0 301 301
- 1.290688 0 1 cbr 536 ------- 2 0.0.0.1 256.0.0.0 301 301
r 1.293546 0 1 cbr 536 ------- 2 0.0.0.1 256.0.0.0 301 301
+ 1.294976 0 1 cbr 536 ------- 2 0.0.0.1 256.0.0.0 302 302
- 1.294976 0 1 cbr 536 ------- 2 0.0.0.1 256.0.0.0 302 302
r 1.297834 0 1 cbr 536 ------- 2 0.0.0.1 256.0.0.0 302 302
+ 1.299264 0 1 cbr 536 ------- 2 0.0.0.1 256.0.0.0 303 303
- 1.299264 0 1 cbr 536 ------- 2 0.0.0.1 256.0.0.0 303 303
r 1.302122 0 1 cbr 536 ------- 2 0.0.0.1 256.0.0.0 303 303
+ 1.303552 0 1 cbr 536 ------- 2 0.0.0.1 256.0.0.0 304 304
- 1.303552 0 1 cbr 536 ------- 2 0.0.0.1 256.0.0.0 304 304
r 1.30641 0 1 cbr 536 ------- 2 0.0.0.1 256.0.0.0 304 304
+ 1.30784 0 1 cbr 536 ------- 2 0.0.0.1 256.0.0.0 305 305
- 1.30784 0 1 cbr 536 ------- 2 0.0.0.1 256.0.0.0 305 305
r 1.310698 0 1 cbr 536 ------- 2 0.0.0.1 256.0.0.0 305 305
+ 1.312128 0 1 cbr 536 ------- 2 0.0.0.1 256.0.0.0 306 306
- 1.312128 0 1 cbr 536 ------- 2 0.0.0.1 256.0.0.0 306 306
r 1.314986 0 1 cbr 536 ------- 2 0.0.0.1 256.0.0.0 306 306
+ 1.316416 0 1 cbr 536 ------- 2 0.0.0.1 256.0.0.0 307 307
- 1.316416 0 1 cbr 536 ------- 2 0.0.0.1 256.0.0.0 307 307
r 1.319274 0 1 cbr 536 ------- 2 0.0.0.1 256.0.0.0 307 307
+ 1.320704 0 1 cbr 536 ------- 2 0.0.0.1 256.0.0.0 308 308
- 1.320704 0 1 cbr 536 ------- 2 0.0.0.1 256.0.0.0 308 308
r 1.323562 0 1 cbr 536 ------- 2 0.0.0.1 256.0.0.0 308 308
+ 1.324992 0 1 cbr 536 ------- 2 0.0.0.1 256.0.0.0 309 309
- 1.324992 0 1 cbr 536 ------- 2 0.0.0.1 256.0.0.0 309 309
r 1.32785 0 1 cbr 536 ------- 2 0.0.0.1 256.0.0.0 309 309
+ 1.32928 0 1 cbr 536 ------- 2 0.0.0.1 256.0.0.0 310 310
- 1.32928 0 1 cbr 536 ------- 2 0.0.0.1 256.0.0.0 310 310
r 1.332138 0 1 cbr 536 ------- 2 0.0.0.1 256.0.0.0 310 310
+ 1.333568 0 1 cbr 536 ------- 2 0.0.0.1 256.0.0.0 311 311
- 1.333568 0 1 cbr 536 ------- 2 0.0.0.1 256.0.0.0 311 311
r 1.336426 0 1 cbr 536 ------- 2 0.0.0.1 256.0.0.0 311 311
+ 1.337856 0 1 cbr 536 ------- 2 0.0.0.1 256.0.0.0 312 312
- 1.337856 0 1 cbr 536 ------- 2 0.0.0.1 256.0.0.0 312 312
r 1.340714 0 1 cbr 536 ------- 2 0.0.0.1 256.0.0.0 312 312
+ 1.342144 0 1 cbr 536 ------- 2 0.0.0.1 256.0.0.0 313 313
- 1.342144 0 1 cbr 536 ------- 2 0.0.0.1 256.0.0.0 313 313
r 1.345002 0 1 cbr 536 ------- 2 0.0.0.1 256.0.0.0 313 313
+ 1.346432 0 1 cbr 536 ------- 2 0.0.0.1 256.0.0.0 314 314
- 1.346432 0 1 cbr 536 ------- 2 0.0.0.1 256.0.0.0 314 314
r 1.34929 0 1 cbr 536 ------- 2 0.0.0.1 256.0.0.0 314 314
+ 1.35072 0 1 cbr 536 ------- 2 0.0.0.1 256.0.0.0 315 315
- 1.35072 0 1 cbr 536 ------- 2 0.0.0.1 256.0.0.0 315 315
r 1.353578 0 1 cbr 536 ------- 2 0.0.0.1 256.0.0.0 315 315
+ 1.355008 0 1 cbr 536 ------- 2 0.0.0.1 256.0.0.0 316 316
- 1.355008 0 1 cbr 536 ------- 2 0.0.0.1 256.0.0.0 316 316
r 1.357866 0 1 cbr 536 ------- 2 0.0.0.1 256.0.0.0 316 316
+ 1.359296 0 1 cbr 536 ------- 2 0.0.0.1 256.0.0.0 317 317
- 1.359296 0 1 cbr 536 ------- 2 0.0.0.1 256.0.0.0 317 317
r 1.362154 0 1 cbr 536 ------- 2 0.0.0.1 256.0.0.0 317 317
+ 1.363584 0 1 cbr 536 ------- 2 0.0.0.1 256.0.0.0 318 318
- 1.363584 0 1 cbr 536 ------- 2 0.0.0.1 256.0.0.0 318 318
r 1.366442 0 1 cbr 536 ------- 2 0.0.0.1 256.0.0.0 318 318
+ 1.367872 0 1 cbr 536 ------- 2 0.0.0.1 256.0.0.0 319 319
- 1.367872 0 1 cbr 536 ------- 2 0.0.0.1 256.0.0.0 319 319
r 1.37073 0 1 cbr 536 ------- 2 0.0.0.1 256.0.0.0 319 319
+ 1.37216 0 1 cbr 536 ------- 2 0.0.0.1 256.0.0.0 320 320
- 1.37216 0 1 cbr 536 ------- 2 0.0.0.1 256.0.0.0 320 320
r 1.375018 0 1 cbr 536 ------- 2 0.0.0.1 256.0.0.0 320 320
+ 1.376448 0 1 cbr 536 ------- 2 0.0.0.1 256.0.0.0 321 321
- 1.376448 0 1 cbr 536 ------- 2 0.0.0.1 256.0.0.0 321 321
r 1.379306 0 1 cbr 536 ------- 2 0.0.0.1 256.0.0.0 321 321
+ 1.380736 0 1 cbr 536 ------- 2 0.0.0.1 256.0.0.0 322 322
- 1.380736 0 1 cbr 536 ------- 2 0.0.0.1 256.0.0.0 322 322
r 1.383594 0 1 cbr 536 ------- 2 0.0.0.1 256.0.0.0 322 322
+ 1.385024 0 1 cbr 536 ------- 2 0.0.0.1 256.0.0.0 323 323
- 1.385024 0 1 cbr 536 ------- 2 0.0.0.1 256.0.0.0 323 323
r 1.387882 0 1 cbr 536 ------- 2 0.0.0.1 256.0.0.0 323 323
+ 1.389312 0 1 cbr 536 ------- 2 0.0.0.1 256.0.0.0 324 324
- 1.389312 0 1 cbr 536 ------- 2 0.0.0.1 256.0.0.0 324 324
r 1.39217 0 1 cbr 536 ------- 2 0.0.0.1 256.0.0.0 324 324
+ 1.3936 0 1 cbr 536 ------- 2 0.0.0.1 256.0.0.0 325 325
- 1.3936 0 1 cbr 536 ------- 2 0.0.0.1 256.0.0.0 325 325
r 1.396458 0 1 cbr 536 ------- 2 0.0.0.1 256.0.0.0 325 325
+ 1.397888 0 1 cbr 536 ------- 2 0.0.0.1 256.0.0.0 326 326
- 1.397888 0 1 cbr 536 ------- 2 0.0.0.1 256.0.0.0 326 326
r 1.400746 0 1 cbr 536 ------- 2 0.0.0.1 256.0.0.0 326 326
+ 1.402176 0 1 cbr 536 ------- 2 0.0.0.1 256.0.0.0 327 327
- 1.402176 0 1 cbr 536 ------- 2 0.0.0.1 256.0.0.0 327 327
r 1.405034 0 1 cbr 536 ------- 2 0.0.0.1 256.0.0.0 327 327
+ 1.406464 0 1 cbr 536 ------- 2 0.0.0.1 256.0.0.0 328 328
- 1.406464 0 1 cbr 536 ------- 2 0.0.0.1 256.0.0.0 328 328
r 1.409322 0 1 cbr 536 ------- 2 0.0.0.1 256.0.0.0 328 328
+ 1.410752 0 1 cbr 536 ------- 2 0.0.0.1 256.0.0.0 329 329
- 1.410752 0 1 cbr 536 ------- 2 0.0.0.1 256.0.0.0 329 329
r 1.41361 0 1 cbr 536 ------- 2 0.0.0.1 256.0.0.0 329 329
+ 1.41504 0 1 cbr 536 ------- 2 0.0.0.1 256.0.0.0 330 330
- 1.41504 0 1 cbr 536 ------- 2 0.0.0.1 256.0.0.0 330 330
r 1.417898 0 1 cbr 536 ------- 2 0.0.0.1 256.0.0.0 330 330
+ 1.419328 0 1 cbr 536 ------- 2 0.0.0.1 256.0.0.0 331 331
- 1.419328 0 1 cbr 536 ------- 2 0.0.0.1 256.0.0.0 331 331
r 1.422186 0 1 cbr 536 ------- 2 0.0.0.1 256.0.0.0 331 331
+ 1.423616 0 1 cbr 536 ------- 2 0.0.0.1 256.0.0.0 332 332
- 1.423616 0 1 cbr 536 ------- 2 0.0.0.1 256.0.0.0 332 332
r 1.426474 0 1 cbr 536 ------- 2 0.0.0.1 256.0.0.0 332 332
+ 1.427904 0 1 cbr 536 ------- 2 0.0.0.1 256.0.0.0 333 333
- 1.427904 0 1 cbr 536 ------- 2 0.0.0.1 256.0.0.0 333 333
r 1.430762 0 1 cbr 536 ------- 2 0.0.0.1 256.0.0.0 333 333
+ 1.432192 0 1 cbr 536 ------- 2 0.0.0.1 256.0.0.0 334 334
- 1.432192 0 1 cbr 536 ------- 2 0.0.0.1 256.0.0.0 334 334
r 1.43505 0 1 cbr 536 ------- 2 0.0.0.1 256.0.0.0 334 334
+ 1.43648 0 1 cbr 536 ------- 2 0.0.0.1 256.0.0.0 335 335
- 1.43648 0 1 cbr 536 ------- 2 0.0.0.1 256.0.0.0 335 335
r 1.439338 0 1 cbr 536 ------- 2 0.0.0.1 256.0.0.0 335 335
+ 1.440768 0 1 cbr 536 ------- 2 0.0.0.1 256.0.0.0 336 336
- 1.440768 0 1 cbr 536 ------- 2 0.0.0.1 256.0.0.0 336 336
r 1.443626 0 1 cbr 536 ------- 2 0.0.0.1 256.0.0.0 336 336
+ 1.445056 0 1 cbr 536 ------- 2 0.0.0.1 256.0.0.0 337 337
- 1.445056 0 1 cbr 536 ------- 2 0.0.0.1 256.0.0.0 337 337
r 1.447914 0 1 cbr 536 ------- 2 0.0.0.1 256.0.0.0 337 337
+ 1.449344 0 1 cbr 536 ------- 2 0.0.0.1 256.0.0.0 338 338
- 1.449344 0 1 cbr 536 ------- 2 0.0.0.1 256.0.0.0 338 338
r 1.452202 0 1 cbr 536 ------- 2 0.0.0.1 256.0.0.0 338 338
+ 1.453632 0 1 cbr 536 ------- 2 0.0.0.1 256.0.0.0 339 339
- 1.453632 0 1 cbr 536 ------- 2 0.0.0.1 256.0.0.0 339 339
r 1.45649 0 1 cbr 536 ------- 2 0.0.0.1 256.0.0.0 339 339
+ 1.45792 0 1 cbr 536 ------- 2 0.0.0.1 256.0.0.0 340 340
- 1.45792 0 1 cbr 536 ------- 2 0.0.0.1 256.0.0.0 340 340
r 1.460778 0 1 cbr 536 ------- 2 0.0.0.1 256.0.0.0 340 340
+ 1.462208 0 1 cbr 536 ------- 2 0.0.0.1 256.0.0.0 341 341
- 1.462208 0 1 cbr 536 ------- 2 0.0.0.1 256.0.0.0 341 341
r 1.465066 0 1 cbr 536 ------- 2 0.0.0.1 256.0.0.0 341 341
+ 1.466496 0 1 cbr 536 ------- 2 0.0.0.1 256.0.0.0 342 342
- 1.466496 0 1 cbr 536 ------- 2 0.0.0.1 256.0.0.0 342 342
r 1.469354 0 1 cbr 536 ------- 2 0.0.0.1 256.0.0.0 342 342
+ 1.470784 0 1 cbr 536 ------- 2 0.0.0.1 256.0.0.0 343 343
- 1.470784 0 1 cbr 536 ------- 2 0.0.0.1 256.0.0.0 343 343
r 1.473642 0 1 cbr 536 ------- 2 0.0.0.1 256.0.0.0 343 343
+ 1.475072 0 1 cbr 536 ------- 2 0.0.0.1 256.0.0.0 344 344
- 1.475072 0 1 cbr 536 ------- 2 0.0.0.1 256.0.0.0 344 344
r 1.47793 0 1 cbr 536 ------- 2 0.0.0.1 256.0.0.0 344 344
+ 1.47936 0 1 cbr 536 ------- 2 0.0.0.1 256.0.0.0 345 345
- 1.47936 0 1 cbr 536 ------- 2 0.0.0.1 256.0.0.0 345 345
r 1.482218 0 1 cbr 536 ------- 2 0.0.0.1 256.0.0.0 345 345
+ 1.483648 0 1 cbr 536 ------- 2 0.0.0.1 256.0.0.0 346 346
- 1.483648 0 1 cbr 536 ------- 2 0.0.0.1 256.0.0.0 346 346
r 1.486506 0 1 cbr 536 ------- 2 0.0.0.1 256.0.0.0 346 346
+ 1.487936 0 1 cbr 536 ------- 2 0.0.0.1 256.0.0.0 347 347
- 1.487936 0 1 cbr 536 ------- 2 0.0.0.1 256.0.0.0 347 347
r 1.490794 0 1 cbr 536 ------- 2 0.0.0.1 256.0.0.0 347 347
+ 1.492224 0 1 cbr 536 ------- 2 0.0.0.1 256.0.0.0 348 348
- 1.492224 0 1 cbr 536 ------- 2 0.0.0.1 256.0.0.0 348 348
r 1.495082 0 1 cbr 536 ------- 2 0.0.0.1 256.0.0.0 348 348
+ 1.496512 0 1 cbr 536 ------- 2 0.0.0.1 256.0.0.0 349 349
- 1.496512 0 1 cbr 536 ------- 2 0.0.0.1 256.0.0.0 349 349
r 1.49937 0 1 cbr 536 ------- 2 0.0.0.1 256.0.0.0 349 349
+ 1.5008 0 1 cbr 536 ------- 2 0.0.0.1 256.0.0.0 350 350
- 1.5008 0 1 cbr 536 ------- 2 0.0.0.1 256.0.0.0 350 350
r 1.503658 0 1 cbr 536 ------- 2 0.0.0.1 256.0.0.0 350 350
+ 1.505088 0 1 cbr 536 ------- 2 0.0.0.1 256.0.0.0 351 351
- 1.505088 0 1 cbr 536 ------- 2 0.0.0.1 256.0.0.0 351 351
r 1.507946 0 1 cbr 536 ------- 2 0.0.0.1 256.0.0.0 351 351
+ 1.509376 0 1 cbr 536 ------- 2 0.0.0.1 256.0.0.0 352 352
- 1.509376 0 1 cbr 536 ------- 2 0.0.0.1 256.0.0.0 352 352
r 1.512234 0 1 cbr 536 ------- 2 0.0.0.1 256.0.0.0 352 352
+ 1.513664 0 1 cbr 536 ------- 2 0.0.0.1 256.0.0.0 353 353
- 1.513664 0 1 cbr 536 ------- 2 0.0.0.1 256.0.0.0 353 353
r 1.516522 0 1 cbr 536 ------- 2 0.0.0.1 256.0.0.0 353 353
+ 1.517952 0 1 cbr 536 ------- 2 0.0.0.1 256.0.0.0 354 354
- 1.517952 0 1 cbr 536 ------- 2 0.0.0.1 256.0.0.0 354 354
r 1.52081 0 1 cbr 536 ------- 2 0.0.0.1 256.0.0.0 354 354
+ 1.52224 0 1 cbr 536 ------- 2 0.0.0.1 256.0.0.0 355 355
- 1.52224 0 1 cbr 536 ------- 2 0.0.0.1 256.0.0.0 355 355
r 1.525098 0 1 cbr 536 ------- 2 0.0.0.1 256.0.0.0 355 355
+ 1.526528 0 1 cbr 536 ------- 2 0.0.0.1 256.0.0.0 356 356
- 1.526528 0 1 cbr 536 ------- 2 0.0.0.1 256.0.0.0 356 356
r 1.529386 0 1 cbr 536 ------- 2 0.0.0.1 256.0.0.0 356 356
+ 1.530816 0 1 cbr 536 ------- 2 0.0.0.1 256.0.0.0 357 357
- 1.530816 0 1 cbr 536 ------- 2 0.0.0.1 256.0.0.0 357 357
r 1.533674 0 1 cbr 536 ------- 2 0.0.0.1 256.0.0.0 357 357
+ 1.535104 0 1 cbr 536 ------- 2 0.0.0.1 256.0.0.0 358 358
- 1.535104 0 1 cbr 536 ------- 2 0.0.0.1 256.0.0.0 358 358
r 1.537962 0 1 cbr 536 ------- 2 0.0.0.1 256.0.0.0 358 358
+ 1.539392 0 1 cbr 536 ------- 2 0.0.0.1 256.0.0.0 359 359
- 1.539392 0 1 cbr 536 ------- 2 0.0.0.1 256.0.0.0 359 359
r 1.54225 0 1 cbr 536 ------- 2 0.0.0.1 256.0.0.0 359 359
+ 1.54368 0 1 cbr 536 ------- 2 0.0.0.1 256.0.0.0 360 360
- 1.54368 0 1 cbr 536 ------- 2 0.0.0.1 256.0.0.0 360 360
r 1.546538 0 1 cbr 536 ------- 2 0.0.0.1 256.0.0.0 360 360
+ 1.547968 0 1 cbr 536 ------- 2 0.0.0.1 256.0.0.0 361 361
- 1.547968 0 1 cbr 536 ------- 2 0.0.0.1 256.0.0.0 361 361
r 1.550826 0 1 cbr 536 ------- 2 0.0.0.1 256.0.0.0 361 361
+ 1.552256 0 1 cbr 536 ------- 2 0.0.0.1 256.0.0.0 362 362
- 1.552256 0 1 cbr 536 ------- 2 0.0.0.1 256.0.0.0 362 362
r 1.555114 0 1 cbr 536 ------- 2 0.0.0.1 256.0.0.0 362 362
+ 1.556544 0 1 cbr 536 ------- 2 0.0.0.1 256.0.0.0 363 363
- 1.556544 0 1 cbr 536 ------- 2 0.0.0.1 256.0.0.0 363 363
r 1.559402 0 1 cbr 536 ------- 2 0.0.0.1 256.0.0.0 363 363
+ 1.560832 0 1 cbr 536 ------- 2 0.0.0.1 256.0.0.0 364 364
- 1.560832 0 1 cbr 536 ------- 2 0.0.0.1 256.0.0.0 364 364
r 1.56369 0 1 cbr 536 ------- 2 0.0.0.1 256.0.0.0 364 364
+ 1.56512 0 1 cbr 536 ------- 2 0.0.0.1 256.0.0.0 365 365
- 1.56512 0 1 cbr 536 ------- 2 0.0.0.1 256.0.0.0 365 365
r 1.567978 0 1 cbr 536 ------- 2 0.0.0.1 256.0.0.0 365 365
+ 1.569408 0 1 cbr 536 ------- 2 0.0.0.1 256.0.0.0 366 366
- 1.569408 0 1 cbr 536 ------- 2 0.0.0.1 256.0.0.0 366 366
r 1.572266 0 1 cbr 536 ------- 2 0.0.0.1 256.0.0.0 366 366
+ 1.573696 0 1 cbr 536 ------- 2 0.0.0.1 256.0.0.0 367 367
- 1.573696 0 1 cbr 536 ------- 2 0.0.0.1 256.0.0.0 367 367
r 1.576554 0 1 cbr 536 ------- 2 0.0.0.1 256.0.0.0 367 367
+ 1.577984 0 1 cbr 536 ------- 2 0.0.0.1 256.0.0.0 368 368
- 1.577984 0 1 cbr 536 ------- 2 0.0.0.1 256.0.0.0 368 368
r 1.580842 0 1 cbr 536 ------- 2 0.0.0.1 256.0.0.0 368 368
+ 1.582272 0 1 cbr 536 ------- 2 0.0.0.1 256.0.0.0 369 369
- 1.582272 0 1 cbr 536 ------- 2 0.0.0.1 256.0.0.0 369 369
r 1.58513 0 1 cbr 536 ------- 2 0.0.0.1 256.0.0.0 369 369
+ 1.58656 0 1 cbr 536 ------- 2 0.0.0.1 256.0.0.0 370 370
- 1.58656 0 1 cbr 536 ------- 2 0.0.0.1 256.0.0.0 370 370
r 1.589418 0 1 cbr 536 ------- 2 0.0.0.1 256.0.0.0 370 370
+ 1.590848 0 1 cbr 536 ------- 2 0.0.0.1 256.0.0.0 371 371
- 1.590848 0 1 cbr 536 ------- 2 0.0.0.1 256.0.0.0 371 371
r 1.593706 0 1 cbr 536 ------- 2 0.0.0.1 256.0.0.0 371 371
+ 1.595136 0 1 cbr 536 ------- 2 0.0.0.1 256.0.0.0 372 372
- 1.595136 0 1 cbr 536 ------- 2 0.0.0.1 256.0.0.0 372 372
r 1.597994 0 1 cbr 536 ------- 2 0.0.0.1 256.0.0.0 372 372
+ 1.599424 0 1 cbr 536 ------- 2 0.0.0.1 256.0.0.0 373 373
- 1.599424 0 1 cbr 536 ------- 2 0.0.0.1 256.0.0.0 373 373
r 1.602282 0 1 cbr 536 ------- 2 0.0.0.1 256.0.0.0 373 373
+ 1.603712 0 1 cbr 536 ------- 2 0.0.0.1 256.0.0.0 374 374
- 1.603712 0 1 cbr 536 ------- 2 0.0.0.1 256.0.0.0 374 374
r 1.60657 0 1 cbr 536 ------- 2 0.0.0.1 256.0.0.0 374 374
+ 1.608 0 1 cbr 536 ------- 2 0.0.0.1 256.0.0.0 375 375
- 1.608 0 1 cbr 536 ------- 2 0.0.0.1 256.0.0.0 375 375
r 1.610858 0 1 cbr 536 ------- 2 0.0.0.1 256.0.0.0 375 375
+ 1.612288 0 1 cbr 536 ------- 2 0.0.0.1 256.0.0.0 376 376
- 1.612288 0 1 cbr 536 ------- 2 0.0.0.1 256.0.0.0 376 376
r 1.615146 0 1 cbr 536 ------- 2 0.0.0.1 256.0.0.0 376 376
+ 1.616576 0 1 cbr 536 ------- 2 0.0.0.1 256.0.0.0 377 377
- 1.616576 0 1 cbr 536 ------- 2 0.0.0.1 256.0.0.0 377 377
r 1.619434 0 1 cbr 536 ------- 2 0.0.0.1 256.0.0.0 377 377
+ 1.620864 0 1 cbr 536 ------- 2 0.0.0.1 256.0.0.0 378 378
- 1.620864 0 1 cbr 536 ------- 2 0.0.0.1 256.0.0.0 378 378
r 1.623722 0 1 cbr 536 ------- 2 0.0.0.1 256.0.0.0 378 378
+ 1.625152 0 1 cbr 536 ------- 2 0.0.0.1 256.0.0.0 379 379
- 1.625152 0 1 cbr 536 ------- 2 0.0.0.1 256.0.0.0 379 379
r 1.62801 0 1 cbr 536 ------- 2 0.0.0.1 256.0.0.0 379 379
+ 1.62944 0 1 cbr 536 ------- 2 0.0.0.1 256.0.0.0 380 380
- 1.62944 0 1 cbr 536 ------- 2 0.0.0.1 256.0.0.0 380 380
r 1.632298 0 1 cbr 536 ------- 2 0.0.0.1 256.0.0.0 380 380
+ 1.633728 0 1 cbr 536 ------- 2 0.0.0.1 256.0.0.0 381 381
- 1.633728 0 1 cbr 536 ------- 2 0.0.0.1 256.0.0.0 381 381
r 1.636586 0 1 cbr 536 ------- 2 0.0.0.1 256.0.0.0 381 381
+ 1.638016 0 1 cbr 536 ------- 2 0.0.0.1 256.0.0.0 382 382
- 1.638016 0 1 cbr 536 ------- 2 0.0.0.1 256.0.0.0 382 382
r 1.640874 0 1 cbr 536 ------- 2 0.0.0.1 256.0.0.0 382 382
+ 1.642304 0 1 cbr 536 ------- 2 0.0.0.1 256.0.0.0 383 383
- 1.642304 0 1 cbr 536 ------- 2 0.0.0.1 256.0.0.0 383 383
r 1.645162 0 1 cbr 536 ------- 2 0.0.0.1 256.0.0.0 383 383
+ 1.646592 0 1 cbr 536 ------- 2 0.0.0.1 256.0.0.0 384 384
- 1.646592 0 1 cbr 536 ------- 2 0.0.0.1 256.0.0.0 384 384
r 1.64945 0 1 cbr 536 ------- 2 0.0.0.1 256.0.0.0 384 384
+ 1.65088 0 1 cbr 536 ------- 2 0.0.0.1 256.0.0.0 385 385
- 1.65088 0 1 cbr 536 ------- 2 0.0.0.1 256.0.0.0 385 385
r 1.653738 0 1 cbr 536 ------- 2 0.0.0.1 256.0.0.0 385 385
+ 1.655168 0 1 cbr 536 ------- 2 0.0.0.1 256.0.0.0 386 386
- 1.655168 0 1 cbr 536 ------- 2 0.0.0.1 256.0.0.0 386 386
r 1.658026 0 1 cbr 536 ------- 2 0.0.0.1 256.0.0.0 386 386
+ 1.659456 0 1 cbr 536 ------- 2 0.0.0.1 256.0.0.0 387 387
- 1.659456 0 1 cbr 536 ------- 2 0.0.0.1 256.0.0.0 387 387
r 1.662314 0 1 cbr 536 ------- 2 0.0.0.1 256.0.0.0 387 387
+ 1.663744 0 1 cbr 536 ------- 2 0.0.0.1 256.0.0.0 388 388
- 1.663744 0 1 cbr 536 ------- 2 0.0.0.1 256.0.0.0 388 388
r 1.666602 0 1 cbr 536 ------- 2 0.0.0.1 256.0.0.0 388 388
+ 1.668032 0 1 cbr 536 ------- 2 0.0.0.1 256.0.0.0 389 389
- 1.668032 0 1 cbr 536 ------- 2 0.0.0.1 256.0.0.0 389 389
r 1.67089 0 1 cbr 536 ------- 2 0.0.0.1 256.0.0.0 389 389
+ 1.67232 0 1 cbr 536 ------- 2 0.0.0.1 256.0.0.0 390 390
- 1.67232 0 1 cbr 536 ------- 2 0.0.0.1 256.0.0.0 390 390
r 1.675178 0 1 cbr 536 ------- 2 0.0.0.1 256.0.0.0 390 390
+ 1.676608 0 1 cbr 536 ------- 2 0.0.0.1 256.0.0.0 391 391
- 1.676608 0 1 cbr 536 ------- 2 0.0.0.1 256.0.0.0 391 391
r 1.679466 0 1 cbr 536 ------- 2 0.0.0.1 256.0.0.0 391 391
+ 1.680896 0 1 cbr 536 ------- 2 0.0.0.1 256.0.0.0 392 392
- 1.680896 0 1 cbr 536 ------- 2 0.0.0.1 256.0.0.0 392 392
r 1.683754 0 1 cbr 536 ------- 2 0.0.0.1 256.0.0.0 392 392
+ 1.685184 0 1 cbr 536 ------- 2 0.0.0.1 256.0.0.0 393 393
- 1.685184 0 1 cbr 536 ------- 2 0.0.0.1 256.0.0.0 393 393
r 1.688042 0 1 cbr 536 ------- 2 0.0.0.1 256.0.0.0 393 393
+ 1.689472 0 1 cbr 536 ------- 2 0.0.0.1 256.0.0.0 394 394
- 1.689472 0 1 cbr 536 ------- 2 0.0.0.1 256.0.0.0 394 394
r 1.69233 0 1 cbr 536 ------- 2 0.0.0.1 256.0.0.0 394 394
+ 1.69376 0 1 cbr 536 ------- 2 0.0.0.1 256.0.0.0 395 395
- 1.69376 0 1 cbr 536 ------- 2 0.0.0.1 256.0.0.0 395 395
r 1.696618 0 1 cbr 536 ------- 2 0.0.0.1 256.0.0.0 395 395
+ 1.698048 0 1 cbr 536 ------- 2 0.0.0.1 256.0.0.0 396 396
- 1.698048 0 1 cbr 536 ------- 2 0.0.0.1 256.0.0.0 396 396
r 1.700906 0 1 cbr 536 ------- 2 0.0.0.1 256.0.0.0 396 396
+ 1.702336 0 1 cbr 536 ------- 2 0.0.0.1 256.0.0.0 397 397
- 1.702336 0 1 cbr 536 ------- 2 0.0.0.1 256.0.0.0 397 397
r 1.705194 0 1 cbr 536 ------- 2 0.0.0.1 256.0.0.0 397 397
+ 1.706624 0 1 cbr 536 ------- 2 0.0.0.1 256.0.0.0 398 398
- 1.706624 0 1 cbr 536 ------- 2 0.0.0.1 256.0.0.0 398 398
r 1.709482 0 1 cbr 536 ------- 2 0.0.0.1 256.0.0.0 398 398
+ 1.710912 0 1 cbr 536 ------- 2 0.0.0.1 256.0.0.0 399 399
- 1.710912 0 1 cbr 536 ------- 2 0.0.0.1 256.0.0.0 399 399
r 1.71377 0 1 cbr 536 ------- 2 0.0.0.1 256.0.0.0 399 399
+ 1.7152 0 1 cbr 536 ------- 2 0.0.0.1 256.0.0.0 400 400
- 1.7152 0 1 cbr 536 ------- 2 0.0.0.1 256.0.0.0 400 400
r 1.718058 0 1 cbr 536 ------- 2 0.0.0.1 256.0.0.0 400 400
+ 1.719488 0 1 cbr 536 ------- 2 0.0.0.1 256.0.0.0 401 401
- 1.719488 0 1 cbr 536 ------- 2 0.0.0.1 256.0.0.0 401 401
r 1.722346 0 1 cbr 536 ------- 2 0.0.0.1 256.0.0.0 401 401
+ 1.723776 0 1 cbr 536 ------- 2 0.0.0.1 256.0.0.0 402 402
- 1.723776 0 1 cbr 536 ------- 2 0.0.0.1 256.0.0.0 402 402
r 1.726634 0 1 cbr 536 ------- 2 0.0.0.1 256.0.0.0 402 402
+ 1.728064 0 1 cbr 536 ------- 2 0.0.0.1 256.0.0.0 403 403