+ 1 0 1 cbr 536 ------- 0 0.0.0.0 1.1.1.0 0 0
- 1 0 1 cbr 536 ------- 0 0.0.0.0 1.1.1.0 0 0
r 1.002858 0 1 cbr 536 ------- 0 0.0.0.0 1.1.1.0 0 0
+ 1.002858 1 5 cbr 536 ------- 0 0.0.0.0 1.1.1.0 0 0
- 1.002858 1 5 cbr 536 ------- 0 0.0.0.0 1.1.1.0 0 0
+ 1.004288 0 1 cbr 536 ------- 0 0.0.0.0 1.1.1.0 1 1
- 1.004288 0 1 cbr 536 ------- 0 0.0.0.0 1.1.1.0 1 1
r 1.005715 1 5 cbr 536 ------- 0 0.0.0.0 1.1.1.0 0 0
+ 1.005715 5 6 cbr 536 ------- 0 0.0.0.0 1.1.1.0 0 0
- 1.005715 5 6 cbr 536 ------- 0 0.0.0.0 1.1.1.0 0 0
r 1.007146 0 1 cbr 536 ------- 0 0.0.0.0 1.1.1.0 1 1
+ 1.007146 1 5 cbr 536 ------- 0 0.0.0.0 1.1.1.0 1 1
- 1.007146 1 5 cbr 536 ------- 0 0.0.0.0 1.1.1.0 1 1
r 1.008573 5 6 cbr 536 ------- 0 0.0.0.0 1.1.1.0 0 0
+ 1.008573 6 7 cbr 536 ------- 0 0.0.0.0 1.1.1.0 0 0
- 1.008573 6 7 cbr 536 ------- 0 0.0.0.0 1.1.1.0 0 0
+ 1.008576 0 1 cbr 536 ------- 0 0.0.0.0 1.1.1.0 2 2
- 1.008576 0 1 cbr 536 ------- 0 0.0.0.0 1.1.1.0 2 2
r 1.010003 1 5 cbr 536 ------- 0 0.0.0.0 1.1.1.0 1 1
+ 1.010003 5 6 cbr 536 ------- 0 0.0.0.0 1.1.1.0 1 1
- 1.010003 5 6 cbr 536 ------- 0 0.0.0.0 1.1.1.0 1 1
r 1.01143 6 7 cbr 536 ------- 0 0.0.0.0 1.1.1.0 0 0
+ 1.01143 7 8 cbr 536 ------- 0 0.0.0.0 1.1.1.0 0 0
- 1.01143 7 8 cbr 536 ------- 0 0.0.0.0 1.1.1.0 0 0
r 1.011434 0 1 cbr 536 ------- 0 0.0.0.0 1.1.1.0 2 2
+ 1.011434 1 5 cbr 536 ------- 0 0.0.0.0 1.1.1.0 2 2
- 1.011434 1 5 cbr 536 ------- 0 0.0.0.0 1.1.1.0 2 2
r 1.012861 5 6 cbr 536 ------- 0 0.0.0.0 1.1.1.0 1 1
+ 1.012861 6 7 cbr 536 ------- 0 0.0.0.0 1.1.1.0 1 1
- 1.012861 6 7 cbr 536 ------- 0 0.0.0.0 1.1.1.0 1 1
+ 1.012864 0 1 cbr 536 ------- 0 0.0.0.0 1.1.1.0 3 3
- 1.012864 0 1 cbr 536 ------- 0 0.0.0.0 1.1.1.0 3 3
r 1.014288 7 8 cbr 536 ------- 0 0.0.0.0 1.1.1.0 0 0
r 1.014291 1 5 cbr 536 ------- 0 0.0.0.0 1.1.1.0 2 2
+ 1.014291 5 6 cbr 536 ------- 0 0.0.0.0 1.1.1.0 2 2
- 1.014291 5 6 cbr 536 ------- 0 0.0.0.0 1.1.1.0 2 2
r 1.015718 6 7 cbr 536 ------- 0 0.0.0.0 1.1.1.0 1 1
+ 1.015718 7 8 cbr 536 ------- 0 0.0.0.0 1.1.1.0 1 1
- 1.015718 7 8 cbr 536 ------- 0 0.0.0.0 1.1.1.0 1 1
r 1.015722 0 1 cbr 536 ------- 0 0.0.0.0 1.1.1.0 3 3
+ 1.015722 1 5 cbr 536 ------- 0 0.0.0.0 1.1.1.0 3 3
- 1.015722 1 5 cbr 536 ------- 0 0.0.0.0 1.1.1.0 3 3
r 1.017149 5 6 cbr 536 ------- 0 0.0.0.0 1.1.1.0 2 2
+ 1.017149 6 7 cbr 536 ------- 0 0.0.0.0 1.1.1.0 2 2
- 1.017149 6 7 cbr 536 ------- 0 0.0.0.0 1.1.1.0 2 2
+ 1.017152 0 1 cbr 536 ------- 0 0.0.0.0 1.1.1.0 4 4
- 1.017152 0 1 cbr 536 ------- 0 0.0.0.0 1.1.1.0 4 4
r 1.018576 7 8 cbr 536 ------- 0 0.0.0.0 1.1.1.0 1 1
r 1.018579 1 5 cbr 536 ------- 0 0.0.0.0 1.1.1.0 3 3
+ 1.018579 5 6 cbr 536 ------- 0 0.0.0.0 1.1.1.0 3 3
- 1.018579 5 6 cbr 536 ------- 0 0.0.0.0 1.1.1.0 3 3
r 1.020006 6 7 cbr 536 ------- 0 0.0.0.0 1.1.1.0 2 2
+ 1.020006 7 8 cbr 536 ------- 0 0.0.0.0 1.1.1.0 2 2
- 1.020006 7 8 cbr 536 ------- 0 0.0.0.0 1.1.1.0 2 2
r 1.02001 0 1 cbr 536 ------- 0 0.0.0.0 1.1.1.0 4 4
+ 1.02001 1 5 cbr 536 ------- 0 0.0.0.0 1.1.1.0 4 4
- 1.02001 1 5 cbr 536 ------- 0 0.0.0.0 1.1.1.0 4 4
r 1.021437 5 6 cbr 536 ------- 0 0.0.0.0 1.1.1.0 3 3
+ 1.021437 6 7 cbr 536 ------- 0 0.0.0.0 1.1.1.0 3 3
- 1.021437 6 7 cbr 536 ------- 0 0.0.0.0 1.1.1.0 3 3
+ 1.02144 0 1 cbr 536 ------- 0 0.0.0.0 1.1.1.0 5 5
- 1.02144 0 1 cbr 536 ------- 0 0.0.0.0 1.1.1.0 5 5
r 1.022864 7 8 cbr 536 ------- 0 0.0.0.0 1.1.1.0 2 2
r 1.022867 1 5 cbr 536 ------- 0 0.0.0.0 1.1.1.0 4 4
+ 1.022867 5 6 cbr 536 ------- 0 0.0.0.0 1.1.1.0 4 4
- 1.022867 5 6 cbr 536 ------- 0 0.0.0.0 1.1.1.0 4 4
r 1.024294 6 7 cbr 536 ------- 0 0.0.0.0 1.1.1.0 3 3
+ 1.024294 7 8 cbr 536 ------- 0 0.0.0.0 1.1.1.0 3 3
- 1.024294 7 8 cbr 536 ------- 0 0.0.0.0 1.1.1.0 3 3
r 1.024298 0 1 cbr 536 ------- 0 0.0.0.0 1.1.1.0 5 5
+ 1.024298 1 5 cbr 536 ------- 0 0.0.0.0 1.1.1.0 5 5
- 1.024298 1 5 cbr 536 ------- 0 0.0.0.0 1.1.1.0 5 5
r 1.025725 5 6 cbr 536 ------- 0 0.0.0.0 1.1.1.0 4 4
+ 1.025725 6 7 cbr 536 ------- 0 0.0.0.0 1.1.1.0 4 4
- 1.025725 6 7 cbr 536 ------- 0 0.0.0.0 1.1.1.0 4 4
+ 1.025728 0 1 cbr 536 ------- 0 0.0.0.0 1.1.1.0 6 6
- 1.025728 0 1 cbr 536 ------- 0 0.0.0.0 1.1.1.0 6 6
r 1.027152 7 8 cbr 536 ------- 0 0.0.0.0 1.1.1.0 3 3
r 1.027155 1 5 cbr 536 ------- 0 0.0.0.0 1.1.1.0 5 5
+ 1.027155 5 6 cbr 536 ------- 0 0.0.0.0 1.1.1.0 5 5
- 1.027155 5 6 cbr 536 ------- 0 0.0.0.0 1.1.1.0 5 5
r 1.028582 6 7 cbr 536 ------- 0 0.0.0.0 1.1.1.0 4 4
+ 1.028582 7 8 cbr 536 ------- 0 0.0.0.0 1.1.1.0 4 4
- 1.028582 7 8 cbr 536 ------- 0 0.0.0.0 1.1.1.0 4 4
r 1.028586 0 1 cbr 536 ------- 0 0.0.0.0 1.1.1.0 6 6
+ 1.028586 1 5 cbr 536 ------- 0 0.0.0.0 1.1.1.0 6 6
- 1.028586 1 5 cbr 536 ------- 0 0.0.0.0 1.1.1.0 6 6
r 1.030013 5 6 cbr 536 ------- 0 0.0.0.0 1.1.1.0 5 5
+ 1.030013 6 7 cbr 536 ------- 0 0.0.0.0 1.1.1.0 5 5
- 1.030013 6 7 cbr 536 ------- 0 0.0.0.0 1.1.1.0 5 5
+ 1.030016 0 1 cbr 536 ------- 0 0.0.0.0 1.1.1.0 7 7
- 1.030016 0 1 cbr 536 ------- 0 0.0.0.0 1.1.1.0 7 7
r 1.03144 7 8 cbr 536 ------- 0 0.0.0.0 1.1.1.0 4 4
r 1.031443 1 5 cbr 536 ------- 0 0.0.0.0 1.1.1.0 6 6
+ 1.031443 5 6 cbr 536 ------- 0 0.0.0.0 1.1.1.0 6 6
- 1.031443 5 6 cbr 536 ------- 0 0.0.0.0 1.1.1.0 6 6
r 1.03287 6 7 cbr 536 ------- 0 0.0.0.0 1.1.1.0 5 5
+ 1.03287 7 8 cbr 536 ------- 0 0.0.0.0 1.1.1.0 5 5
- 1.03287 7 8 cbr 536 ------- 0 0.0.0.0 1.1.1.0 5 5
r 1.032874 0 1 cbr 536 ------- 0 0.0.0.0 1.1.1.0 7 7
+ 1.032874 1 5 cbr 536 ------- 0 0.0.0.0 1.1.1.0 7 7
- 1.032874 1 5 cbr 536 ------- 0 0.0.0.0 1.1.1.0 7 7
r 1.034301 5 6 cbr 536 ------- 0 0.0.0.0 1.1.1.0 6 6
+ 1.034301 6 7 cbr 536 ------- 0 0.0.0.0 1.1.1.0 6 6
- 1.034301 6 7 cbr 536 ------- 0 0.0.0.0 1.1.1.0 6 6
+ 1.034304 0 1 cbr 536 ------- 0 0.0.0.0 1.1.1.0 8 8
- 1.034304 0 1 cbr 536 ------- 0 0.0.0.0 1.1.1.0 8 8
r 1.035728 7 8 cbr 536 ------- 0 0.0.0.0 1.1.1.0 5 5
r 1.035731 1 5 cbr 536 ------- 0 0.0.0.0 1.1.1.0 7 7
+ 1.035731 5 6 cbr 536 ------- 0 0.0.0.0 1.1.1.0 7 7
- 1.035731 5 6 cbr 536 ------- 0 0.0.0.0 1.1.1.0 7 7
r 1.037158 6 7 cbr 536 ------- 0 0.0.0.0 1.1.1.0 6 6
+ 1.037158 7 8 cbr 536 ------- 0 0.0.0.0 1.1.1.0 6 6
- 1.037158 7 8 cbr 536 ------- 0 0.0.0.0 1.1.1.0 6 6
r 1.037162 0 1 cbr 536 ------- 0 0.0.0.0 1.1.1.0 8 8
+ 1.037162 1 5 cbr 536 ------- 0 0.0.0.0 1.1.1.0 8 8
- 1.037162 1 5 cbr 536 ------- 0 0.0.0.0 1.1.1.0 8 8
r 1.038589 5 6 cbr 536 ------- 0 0.0.0.0 1.1.1.0 7 7
+ 1.038589 6 7 cbr 536 ------- 0 0.0.0.0 1.1.1.0 7 7
- 1.038589 6 7 cbr 536 ------- 0 0.0.0.0 1.1.1.0 7 7
+ 1.038592 0 1 cbr 536 ------- 0 0.0.0.0 1.1.1.0 9 9
- 1.038592 0 1 cbr 536 ------- 0 0.0.0.0 1.1.1.0 9 9
r 1.040016 7 8 cbr 536 ------- 0 0.0.0.0 1.1.1.0 6 6
r 1.040019 1 5 cbr 536 ------- 0 0.0.0.0 1.1.1.0 8 8
+ 1.040019 5 6 cbr 536 ------- 0 0.0.0.0 1.1.1.0 8 8
- 1.040019 5 6 cbr 536 ------- 0 0.0.0.0 1.1.1.0 8 8
r 1.041446 6 7 cbr 536 ------- 0 0.0.0.0 1.1.1.0 7 7
+ 1.041446 7 8 cbr 536 ------- 0 0.0.0.0 1.1.1.0 7 7
- 1.041446 7 8 cbr 536 ------- 0 0.0.0.0 1.1.1.0 7 7
r 1.04145 0 1 cbr 536 ------- 0 0.0.0.0 1.1.1.0 9 9
+ 1.04145 1 5 cbr 536 ------- 0 0.0.0.0 1.1.1.0 9 9
- 1.04145 1 5 cbr 536 ------- 0 0.0.0.0 1.1.1.0 9 9
r 1.042877 5 6 cbr 536 ------- 0 0.0.0.0 1.1.1.0 8 8
+ 1.042877 6 7 cbr 536 ------- 0 0.0.0.0 1.1.1.0 8 8
- 1.042877 6 7 cbr 536 ------- 0 0.0.0.0 1.1.1.0 8 8
+ 1.04288 0 1 cbr 536 ------- 0 0.0.0.0 1.1.1.0 10 10
- 1.04288 0 1 cbr 536 ------- 0 0.0.0.0 1.1.1.0 10 10
r 1.044304 7 8 cbr 536 ------- 0 0.0.0.0 1.1.1.0 7 7
r 1.044307 1 5 cbr 536 ------- 0 0.0.0.0 1.1.1.0 9 9
+ 1.044307 5 6 cbr 536 ------- 0 0.0.0.0 1.1.1.0 9 9
- 1.044307 5 6 cbr 536 ------- 0 0.0.0.0 1.1.1.0 9 9
r 1.045734 6 7 cbr 536 ------- 0 0.0.0.0 1.1.1.0 8 8
+ 1.045734 7 8 cbr 536 ------- 0 0.0.0.0 1.1.1.0 8 8
- 1.045734 7 8 cbr 536 ------- 0 0.0.0.0 1.1.1.0 8 8
r 1.045738 0 1 cbr 536 ------- 0 0.0.0.0 1.1.1.0 10 10
+ 1.045738 1 5 cbr 536 ------- 0 0.0.0.0 1.1.1.0 10 10
- 1.045738 1 5 cbr 536 ------- 0 0.0.0.0 1.1.1.0 10 10
r 1.047165 5 6 cbr 536 ------- 0 0.0.0.0 1.1.1.0 9 9
+ 1.047165 6 7 cbr 536 ------- 0 0.0.0.0 1.1.1.0 9 9
- 1.047165 6 7 cbr 536 ------- 0 0.0.0.0 1.1.1.0 9 9
+ 1.047168 0 1 cbr 536 ------- 0 0.0.0.0 1.1.1.0 11 11
- 1.047168 0 1 cbr 536 ------- 0 0.0.0.0 1.1.1.0 11 11
r 1.048592 7 8 cbr 536 ------- 0 0.0.0.0 1.1.1.0 8 8
r 1.048595 1 5 cbr 536 ------- 0 0.0.0.0 1.1.1.0 10 10
+ 1.048595 5 6 cbr 536 ------- 0 0.0.0.0 1.1.1.0 10 10
- 1.048595 5 6 cbr 536 ------- 0 0.0.0.0 1.1.1.0 10 10
r 1.050022 6 7 cbr 536 ------- 0 0.0.0.0 1.1.1.0 9 9
+ 1.050022 7 8 cbr 536 ------- 0 0.0.0.0 1.1.1.0 9 9
- 1.050022 7 8 cbr 536 ------- 0 0.0.0.0 1.1.1.0 9 9
r 1.050026 0 1 cbr 536 ------- 0 0.0.0.0 1.1.1.0 11 11
+ 1.050026 1 5 cbr 536 ------- 0 0.0.0.0 1.1.1.0 11 11
- 1.050026 1 5 cbr 536 ------- 0 0.0.0.0 1.1.1.0 11 11
r 1.051453 5 6 cbr 536 ------- 0 0.0.0.0 1.1.1.0 10 10
+ 1.051453 6 7 cbr 536 ------- 0 0.0.0.0 1.1.1.0 10 10
- 1.051453 6 7 cbr 536 ------- 0 0.0.0.0 1.1.1.0 10 10
+ 1.051456 0 1 cbr 536 ------- 0 0.0.0.0 1.1.1.0 12 12
- 1.051456 0 1 cbr 536 ------- 0 0.0.0.0 1.1.1.0 12 12
r 1.05288 7 8 cbr 536 ------- 0 0.0.0.0 1.1.1.0 9 9
r 1.052883 1 5 cbr 536 ------- 0 0.0.0.0 1.1.1.0 11 11
+ 1.052883 5 6 cbr 536 ------- 0 0.0.0.0 1.1.1.0 11 11
- 1.052883 5 6 cbr 536 ------- 0 0.0.0.0 1.1.1.0 11 11
r 1.05431 6 7 cbr 536 ------- 0 0.0.0.0 1.1.1.0 10 10
+ 1.05431 7 8 cbr 536 ------- 0 0.0.0.0 1.1.1.0 10 10
- 1.05431 7 8 cbr 536 ------- 0 0.0.0.0 1.1.1.0 10 10
r 1.054314 0 1 cbr 536 ------- 0 0.0.0.0 1.1.1.0 12 12
+ 1.054314 1 5 cbr 536 ------- 0 0.0.0.0 1.1.1.0 12 12
- 1.054314 1 5 cbr 536 ------- 0 0.0.0.0 1.1.1.0 12 12
r 1.055741 5 6 cbr 536 ------- 0 0.0.0.0 1.1.1.0 11 11
+ 1.055741 6 7 cbr 536 ------- 0 0.0.0.0 1.1.1.0 11 11
- 1.055741 6 7 cbr 536 ------- 0 0.0.0.0 1.1.1.0 11 11
+ 1.055744 0 1 cbr 536 ------- 0 0.0.0.0 1.1.1.0 13 13
- 1.055744 0 1 cbr 536 ------- 0 0.0.0.0 1.1.1.0 13 13
r 1.057168 7 8 cbr 536 ------- 0 0.0.0.0 1.1.1.0 10 10
r 1.057171 1 5 cbr 536 ------- 0 0.0.0.0 1.1.1.0 12 12
+ 1.057171 5 6 cbr 536 ------- 0 0.0.0.0 1.1.1.0 12 12
- 1.057171 5 6 cbr 536 ------- 0 0.0.0.0 1.1.1.0 12 12
r 1.058598 6 7 cbr 536 ------- 0 0.0.0.0 1.1.1.0 11 11
+ 1.058598 7 8 cbr 536 ------- 0 0.0.0.0 1.1.1.0 11 11
- 1.058598 7 8 cbr 536 ------- 0 0.0.0.0 1.1.1.0 11 11
r 1.058602 0 1 cbr 536 ------- 0 0.0.0.0 1.1.1.0 13 13
+ 1.058602 1 5 cbr 536 ------- 0 0.0.0.0 1.1.1.0 13 13
- 1.058602 1 5 cbr 536 ------- 0 0.0.0.0 1.1.1.0 13 13
r 1.060029 5 6 cbr 536 ------- 0 0.0.0.0 1.1.1.0 12 12
+ 1.060029 6 7 cbr 536 ------- 0 0.0.0.0 1.1.1.0 12 12
- 1.060029 6 7 cbr 536 ------- 0 0.0.0.0 1.1.1.0 12 12
+ 1.060032 0 1 cbr 536 ------- 0 0.0.0.0 1.1.1.0 14 14
- 1.060032 0 1 cbr 536 ------- 0 0.0.0.0 1.1.1.0 14 14
r 1.061456 7 8 cbr 536 ------- 0 0.0.0.0 1.1.1.0 11 11
r 1.061459 1 5 cbr 536 ------- 0 0.0.0.0 1.1.1.0 13 13
+ 1.061459 5 6 cbr 536 ------- 0 0.0.0.0 1.1.1.0 13 13
- 1.061459 5 6 cbr 536 ------- 0 0.0.0.0 1.1.1.0 13 13
r 1.062886 6 7 cbr 536 ------- 0 0.0.0.0 1.1.1.0 12 12
+ 1.062886 7 8 cbr 536 ------- 0 0.0.0.0 1.1.1.0 12 12
- 1.062886 7 8 cbr 536 ------- 0 0.0.0.0 1.1.1.0 12 12
r 1.06289 0 1 cbr 536 ------- 0 0.0.0.0 1.1.1.0 14 14
+ 1.06289 1 5 cbr 536 ------- 0 0.0.0.0 1.1.1.0 14 14
- 1.06289 1 5 cbr 536 ------- 0 0.0.0.0 1.1.1.0 14 14
r 1.064317 5 6 cbr 536 ------- 0 0.0.0.0 1.1.1.0 13 13
+ 1.064317 6 7 cbr 536 ------- 0 0.0.0.0 1.1.1.0 13 13
- 1.064317 6 7 cbr 536 ------- 0 0.0.0.0 1.1.1.0 13 13
+ 1.06432 0 1 cbr 536 ------- 0 0.0.0.0 1.1.1.0 15 15
- 1.06432 0 1 cbr 536 ------- 0 0.0.0.0 1.1.1.0 15 15
r 1.065744 7 8 cbr 536 ------- 0 0.0.0.0 1.1.1.0 12 12
r 1.065747 1 5 cbr 536 ------- 0 0.0.0.0 1.1.1.0 14 14
+ 1.065747 5 6 cbr 536 ------- 0 0.0.0.0 1.1.1.0 14 14
- 1.065747 5 6 cbr 536 ------- 0 0.0.0.0 1.1.1.0 14 14
r 1.067174 6 7 cbr 536 ------- 0 0.0.0.0 1.1.1.0 13 13
+ 1.067174 7 8 cbr 536 ------- 0 0.0.0.0 1.1.1.0 13 13
- 1.067174 7 8 cbr 536 ------- 0 0.0.0.0 1.1.1.0 13 13
r 1.067178 0 1 cbr 536 ------- 0 0.0.0.0 1.1.1.0 15 15
+ 1.067178 1 5 cbr 536 ------- 0 0.0.0.0 1.1.1.0 15 15
- 1.067178 1 5 cbr 536 ------- 0 0.0.0.0 1.1.1.0 15 15
r 1.068605 5 6 cbr 536 ------- 0 0.0.0.0 1.1.1.0 14 14
+ 1.068605 6 7 cbr 536 ------- 0 0.0.0.0 1.1.1.0 14 14
- 1.068605 6 7 cbr 536 ------- 0 0.0.0.0 1.1.1.0 14 14
+ 1.068608 0 1 cbr 536 ------- 0 0.0.0.0 1.1.1.0 16 16
- 1.068608 0 1 cbr 536 ------- 0 0.0.0.0 1.1.1.0 16 16
r 1.070032 7 8 cbr 536 ------- 0 0.0.0.0 1.1.1.0 13 13
r 1.070035 1 5 cbr 536 ------- 0 0.0.0.0 1.1.1.0 15 15
+ 1.070035 5 6 cbr 536 ------- 0 0.0.0.0 1.1.1.0 15 15
- 1.070035 5 6 cbr 536 ------- 0 0.0.0.0 1.1.1.0 15 15
r 1.071462 6 7 cbr 536 ------- 0 0.0.0.0 1.1.1.0 14 14
+ 1.071462 7 8 cbr 536 ------- 0 0.0.0.0 1.1.1.0 14 14
- 1.071462 7 8 cbr 536 ------- 0 0.0.0.0 1.1.1.0 14 14
r 1.071466 0 1 cbr 536 ------- 0 0.0.0.0 1.1.1.0 16 16
+ 1.071466 1 5 cbr 536 ------- 0 0.0.0.0 1.1.1.0 16 16
- 1.071466 1 5 cbr 536 ------- 0 0.0.0.0 1.1.1.0 16 16
r 1.072893 5 6 cbr 536 ------- 0 0.0.0.0 1.1.1.0 15 15
+ 1.072893 6 7 cbr 536 ------- 0 0.0.0.0 1.1.1.0 15 15
- 1.072893 6 7 cbr 536 ------- 0 0.0.0.0 1.1.1.0 15 15
+ 1.072896 0 1 cbr 536 ------- 0 0.0.0.0 1.1.1.0 17 17
- 1.072896 0 1 cbr 536 ------- 0 0.0.0.0 1.1.1.0 17 17
r 1.07432 7 8 cbr 536 ------- 0 0.0.0.0 1.1.1.0 14 14
r 1.074323 1 5 cbr 536 ------- 0 0.0.0.0 1.1.1.0 16 16
+ 1.074323 5 6 cbr 536 ------- 0 0.0.0.0 1.1.1.0 16 16
- 1.074323 5 6 cbr 536 ------- 0 0.0.0.0 1.1.1.0 16 16
r 1.07575 6 7 cbr 536 ------- 0 0.0.0.0 1.1.1.0 15 15
+ 1.07575 7 8 cbr 536 ------- 0 0.0.0.0 1.1.1.0 15 15
- 1.07575 7 8 cbr 536 ------- 0 0.0.0.0 1.1.1.0 15 15
r 1.075754 0 1 cbr 536 ------- 0 0.0.0.0 1.1.1.0 17 17
+ 1.075754 1 5 cbr 536 ------- 0 0.0.0.0 1.1.1.0 17 17
- 1.075754 1 5 cbr 536 ------- 0 0.0.0.0 1.1.1.0 17 17
r 1.077181 5 6 cbr 536 ------- 0 0.0.0.0 1.1.1.0 16 16
+ 1.077181 6 7 cbr 536 ------- 0 0.0.0.0 1.1.1.0 16 16
- 1.077181 6 7 cbr 536 ------- 0 0.0.0.0 1.1.1.0 16 16
+ 1.077184 0 1 cbr 536 ------- 0 0.0.0.0 1.1.1.0 18 18
- 1.077184 0 1 cbr 536 ------- 0 0.0.0.0 1.1.1.0 18 18
r 1.078608 7 8 cbr 536 ------- 0 0.0.0.0 1.1.1.0 15 15
r 1.078611 1 5 cbr 536 ------- 0 0.0.0.0 1.1.1.0 17 17
+ 1.078611 5 6 cbr 536 ------- 0 0.0.0.0 1.1.1.0 17 17
- 1.078611 5 6 cbr 536 ------- 0 0.0.0.0 1.1.1.0 17 17
r 1.080038 6 7 cbr 536 ------- 0 0.0.0.0 1.1.1.0 16 16
+ 1.080038 7 8 cbr 536 ------- 0 0.0.0.0 1.1.1.0 16 16
- 1.080038 7 8 cbr 536 ------- 0 0.0.0.0 1.1.1.0 16 16
r 1.080042 0 1 cbr 536 ------- 0 0.0.0.0 1.1.1.0 18 18
+ 1.080042 1 5 cbr 536 ------- 0 0.0.0.0 1.1.1.0 18 18
- 1.080042 1 5 cbr 536 ------- 0 0.0.0.0 1.1.1.0 18 18
r 1.081469 5 6 cbr 536 ------- 0 0.0.0.0 1.1.1.0 17 17
+ 1.081469 6 7 cbr 536 ------- 0 0.0.0.0 1.1.1.0 17 17
- 1.081469 6 7 cbr 536 ------- 0 0.0.0.0 1.1.1.0 17 17
+ 1.081472 0 1 cbr 536 ------- 0 0.0.0.0 1.1.1.0 19 19
- 1.081472 0 1 cbr 536 ------- 0 0.0.0.0 1.1.1.0 19 19
r 1.082896 7 8 cbr 536 ------- 0 0.0.0.0 1.1.1.0 16 16
r 1.082899 1 5 cbr 536 ------- 0 0.0.0.0 1.1.1.0 18 18
+ 1.082899 5 6 cbr 536 ------- 0 0.0.0.0 1.1.1.0 18 18
- 1.082899 5 6 cbr 536 ------- 0 0.0.0.0 1.1.1.0 18 18
r 1.084326 6 7 cbr 536 ------- 0 0.0.0.0 1.1.1.0 17 17
+ 1.084326 7 8 cbr 536 ------- 0 0.0.0.0 1.1.1.0 17 17
- 1.084326 7 8 cbr 536 ------- 0 0.0.0.0 1.1.1.0 17 17
r 1.08433 0 1 cbr 536 ------- 0 0.0.0.0 1.1.1.0 19 19
+ 1.08433 1 5 cbr 536 ------- 0 0.0.0.0 1.1.1.0 19 19
- 1.08433 1 5 cbr 536 ------- 0 0.0.0.0 1.1.1.0 19 19
r 1.085757 5 6 cbr 536 ------- 0 0.0.0.0 1.1.1.0 18 18
+ 1.085757 6 7 cbr 536 ------- 0 0.0.0.0 1.1.1.0 18 18
- 1.085757 6 7 cbr 536 ------- 0 0.0.0.0 1.1.1.0 18 18
+ 1.08576 0 1 cbr 536 ------- 0 0.0.0.0 1.1.1.0 20 20
- 1.08576 0 1 cbr 536 ------- 0 0.0.0.0 1.1.1.0 20 20
r 1.087184 7 8 cbr 536 ------- 0 0.0.0.0 1.1.1.0 17 17
r 1.087187 1 5 cbr 536 ------- 0 0.0.0.0 1.1.1.0 19 19
+ 1.087187 5 6 cbr 536 ------- 0 0.0.0.0 1.1.1.0 19 19
- 1.087187 5 6 cbr 536 ------- 0 0.0.0.0 1.1.1.0 19 19
r 1.088614 6 7 cbr 536 ------- 0 0.0.0.0 1.1.1.0 18 18
+ 1.088614 7 8 cbr 536 ------- 0 0.0.0.0 1.1.1.0 18 18
- 1.088614 7 8 cbr 536 ------- 0 0.0.0.0 1.1.1.0 18 18
r 1.088618 0 1 cbr 536 ------- 0 0.0.0.0 1.1.1.0 20 20
+ 1.088618 1 5 cbr 536 ------- 0 0.0.0.0 1.1.1.0 20 20
- 1.088618 1 5 cbr 536 ------- 0 0.0.0.0 1.1.1.0 20 20
r 1.090045 5 6 cbr 536 ------- 0 0.0.0.0 1.1.1.0 19 19
+ 1.090045 6 7 cbr 536 ------- 0 0.0.0.0 1.1.1.0 19 19
- 1.090045 6 7 cbr 536 ------- 0 0.0.0.0 1.1.1.0 19 19
+ 1.090048 0 1 cbr 536 ------- 0 0.0.0.0 1.1.1.0 21 21
- 1.090048 0 1 cbr 536 ------- 0 0.0.0.0 1.1.1.0 21 21
r 1.091472 7 8 cbr 536 ------- 0 0.0.0.0 1.1.1.0 18 18
r 1.091475 1 5 cbr 536 ------- 0 0.0.0.0 1.1.1.0 20 20
+ 1.091475 5 6 cbr 536 ------- 0 0.0.0.0 1.1.1.0 20 20
- 1.091475 5 6 cbr 536 ------- 0 0.0.0.0 1.1.1.0 20 20
r 1.092902 6 7 cbr 536 ------- 0 0.0.0.0 1.1.1.0 19 19
+ 1.092902 7 8 cbr 536 ------- 0 0.0.0.0 1.1.1.0 19 19
- 1.092902 7 8 cbr 536 ------- 0 0.0.0.0 1.1.1.0 19 19
r 1.092906 0 1 cbr 536 ------- 0 0.0.0.0 1.1.1.0 21 21
+ 1.092906 1 5 cbr 536 ------- 0 0.0.0.0 1.1.1.0 21 21
- 1.092906 1 5 cbr 536 ------- 0 0.0.0.0 1.1.1.0 21 21
r 1.094333 5 6 cbr 536 ------- 0 0.0.0.0 1.1.1.0 20 20
+ 1.094333 6 7 cbr 536 ------- 0 0.0.0.0 1.1.1.0 20 20
- 1.094333 6 7 cbr 536 ------- 0 0.0.0.0 1.1.1.0 20 20
+ 1.094336 0 1 cbr 536 ------- 0 0.0.0.0 1.1.1.0 22 22
- 1.094336 0 1 cbr 536 ------- 0 0.0.0.0 1.1.1.0 22 22
r 1.09576 7 8 cbr 536 ------- 0 0.0.0.0 1.1.1.0 19 19
r 1.095763 1 5 cbr 536 ------- 0 0.0.0.0 1.1.1.0 21 21
+ 1.095763 5 6 cbr 536 ------- 0 0.0.0.0 1.1.1.0 21 21
- 1.095763 5 6 cbr 536 ------- 0 0.0.0.0 1.1.1.0 21 21
r 1.09719 6 7 cbr 536 ------- 0 0.0.0.0 1.1.1.0 20 20
+ 1.09719 7 8 cbr 536 ------- 0 0.0.0.0 1.1.1.0 20 20
- 1.09719 7 8 cbr 536 ------- 0 0.0.0.0 1.1.1.0 20 20
r 1.097194 0 1 cbr 536 ------- 0 0.0.0.0 1.1.1.0 22 22
+ 1.097194 1 5 cbr 536 ------- 0 0.0.0.0 1.1.1.0 22 22
- 1.097194 1 5 cbr 536 ------- 0 0.0.0.0 1.1.1.0 22 22
r 1.098621 5 6 cbr 536 ------- 0 0.0.0.0 1.1.1.0 21 21
+ 1.098621 6 7 cbr 536 ------- 0 0.0.0.0 1.1.1.0 21 21
- 1.098621 6 7 cbr 536 ------- 0 0.0.0.0 1.1.1.0 21 21
+ 1.098624 0 1 cbr 536 ------- 0 0.0.0.0 1.1.1.0 23 23
- 1.098624 0 1 cbr 536 ------- 0 0.0.0.0 1.1.1.0 23 23
+ 1.1 2 1 cbr 536 ------- 1 0.1.0.0 1.0.1.0 0 24
- 1.1 2 1 cbr 536 ------- 1 0.1.0.0 1.0.1.0 0 24
r 1.100048 7 8 cbr 536 ------- 0 0.0.0.0 1.1.1.0 20 20
r 1.100051 1 5 cbr 536 ------- 0 0.0.0.0 1.1.1.0 22 22
+ 1.100051 5 6 cbr 536 ------- 0 0.0.0.0 1.1.1.0 22 22
- 1.100051 5 6 cbr 536 ------- 0 0.0.0.0 1.1.1.0 22 22
r 1.101478 6 7 cbr 536 ------- 0 0.0.0.0 1.1.1.0 21 21
+ 1.101478 7 8 cbr 536 ------- 0 0.0.0.0 1.1.1.0 21 21
- 1.101478 7 8 cbr 536 ------- 0 0.0.0.0 1.1.1.0 21 21
r 1.101482 0 1 cbr 536 ------- 0 0.0.0.0 1.1.1.0 23 23
+ 1.101482 1 5 cbr 536 ------- 0 0.0.0.0 1.1.1.0 23 23
- 1.101482 1 5 cbr 536 ------- 0 0.0.0.0 1.1.1.0 23 23
r 1.102858 2 1 cbr 536 ------- 1 0.1.0.0 1.0.1.0 0 24
+ 1.102858 1 5 cbr 536 ------- 1 0.1.0.0 1.0.1.0 0 24
- 1.102858 1 5 cbr 536 ------- 1 0.1.0.0 1.0.1.0 0 24
r 1.102909 5 6 cbr 536 ------- 0 0.0.0.0 1.1.1.0 22 22
+ 1.102909 6 7 cbr 536 ------- 0 0.0.0.0 1.1.1.0 22 22
- 1.102909 6 7 cbr 536 ------- 0 0.0.0.0 1.1.1.0 22 22
+ 1.102912 0 1 cbr 536 ------- 0 0.0.0.0 1.1.1.0 24 25
- 1.102912 0 1 cbr 536 ------- 0 0.0.0.0 1.1.1.0 24 25
+ 1.104288 2 1 cbr 536 ------- 1 0.1.0.0 1.0.1.0 1 26
- 1.104288 2 1 cbr 536 ------- 1 0.1.0.0 1.0.1.0 1 26
r 1.104336 7 8 cbr 536 ------- 0 0.0.0.0 1.1.1.0 21 21
r 1.104339 1 5 cbr 536 ------- 0 0.0.0.0 1.1.1.0 23 23
+ 1.104339 5 6 cbr 536 ------- 0 0.0.0.0 1.1.1.0 23 23
- 1.104339 5 6 cbr 536 ------- 0 0.0.0.0 1.1.1.0 23 23
r 1.105715 1 5 cbr 536 ------- 1 0.1.0.0 1.0.1.0 0 24
+ 1.105715 5 6 cbr 536 ------- 1 0.1.0.0 1.0.1.0 0 24
- 1.105715 5 6 cbr 536 ------- 1 0.1.0.0 1.0.1.0 0 24
r 1.105766 6 7 cbr 536 ------- 0 0.0.0.0 1.1.1.0 22 22
+ 1.105766 7 8 cbr 536 ------- 0 0.0.0.0 1.1.1.0 22 22
- 1.105766 7 8 cbr 536 ------- 0 0.0.0.0 1.1.1.0 22 22
r 1.10577 0 1 cbr 536 ------- 0 0.0.0.0 1.1.1.0 24 25
+ 1.10577 1 5 cbr 536 ------- 0 0.0.0.0 1.1.1.0 24 25
- 1.10577 1 5 cbr 536 ------- 0 0.0.0.0 1.1.1.0 24 25
r 1.107146 2 1 cbr 536 ------- 1 0.1.0.0 1.0.1.0 1 26
+ 1.107146 1 5 cbr 536 ------- 1 0.1.0.0 1.0.1.0 1 26
- 1.107146 1 5 cbr 536 ------- 1 0.1.0.0 1.0.1.0 1 26
r 1.107197 5 6 cbr 536 ------- 0 0.0.0.0 1.1.1.0 23 23
+ 1.107197 6 7 cbr 536 ------- 0 0.0.0.0 1.1.1.0 23 23
- 1.107197 6 7 cbr 536 ------- 0 0.0.0.0 1.1.1.0 23 23
+ 1.1072 0 1 cbr 536 ------- 0 0.0.0.0 1.1.1.0 25 27
- 1.1072 0 1 cbr 536 ------- 0 0.0.0.0 1.1.1.0 25 27
r 1.108573 5 6 cbr 536 ------- 1 0.1.0.0 1.0.1.0 0 24
+ 1.108576 2 1 cbr 536 ------- 1 0.1.0.0 1.0.1.0 2 28
- 1.108576 2 1 cbr 536 ------- 1 0.1.0.0 1.0.1.0 2 28
r 1.108624 7 8 cbr 536 ------- 0 0.0.0.0 1.1.1.0 22 22
r 1.108627 1 5 cbr 536 ------- 0 0.0.0.0 1.1.1.0 24 25
+ 1.108627 5 6 cbr 536 ------- 0 0.0.0.0 1.1.1.0 24 25
- 1.108627 5 6 cbr 536 ------- 0 0.0.0.0 1.1.1.0 24 25
r 1.110003 1 5 cbr 536 ------- 1 0.1.0.0 1.0.1.0 1 26
+ 1.110003 5 6 cbr 536 ------- 1 0.1.0.0 1.0.1.0 1 26
- 1.110003 5 6 cbr 536 ------- 1 0.1.0.0 1.0.1.0 1 26
r 1.110054 6 7 cbr 536 ------- 0 0.0.0.0 1.1.1.0 23 23
+ 1.110054 7 8 cbr 536 ------- 0 0.0.0.0 1.1.1.0 23 23
- 1.110054 7 8 cbr 536 ------- 0 0.0.0.0 1.1.1.0 23 23
r 1.110058 0 1 cbr 536 ------- 0 0.0.0.0 1.1.1.0 25 27
+ 1.110058 1 5 cbr 536 ------- 0 0.0.0.0 1.1.1.0 25 27
- 1.110058 1 5 cbr 536 ------- 0 0.0.0.0 1.1.1.0 25 27
r 1.111434 2 1 cbr 536 ------- 1 0.1.0.0 1.0.1.0 2 28
+ 1.111434 1 5 cbr 536 ------- 1 0.1.0.0 1.0.1.0 2 28
- 1.111434 1 5 cbr 536 ------- 1 0.1.0.0 1.0.1.0 2 28
r 1.111485 5 6 cbr 536 ------- 0 0.0.0.0 1.1.1.0 24 25
+ 1.111485 6 7 cbr 536 ------- 0 0.0.0.0 1.1.1.0 24 25
- 1.111485 6 7 cbr 536 ------- 0 0.0.0.0 1.1.1.0 24 25
+ 1.111488 0 1 cbr 536 ------- 0 0.0.0.0 1.1.1.0 26 29
- 1.111488 0 1 cbr 536 ------- 0 0.0.0.0 1.1.1.0 26 29
r 1.112861 5 6 cbr 536 ------- 1 0.1.0.0 1.0.1.0 1 26
+ 1.112864 2 1 cbr 536 ------- 1 0.1.0.0 1.0.1.0 3 30
- 1.112864 2 1 cbr 536 ------- 1 0.1.0.0 1.0.1.0 3 30
r 1.112912 7 8 cbr 536 ------- 0 0.0.0.0 1.1.1.0 23 23
r 1.112915 1 5 cbr 536 ------- 0 0.0.0.0 1.1.1.0 25 27
+ 1.112915 5 6 cbr 536 ------- 0 0.0.0.0 1.1.1.0 25 27
- 1.112915 5 6 cbr 536 ------- 0 0.0.0.0 1.1.1.0 25 27
r 1.114291 1 5 cbr 536 ------- 1 0.1.0.0 1.0.1.0 2 28
+ 1.114291 5 6 cbr 536 ------- 1 0.1.0.0 1.0.1.0 2 28
- 1.114291 5 6 cbr 536 ------- 1 0.1.0.0 1.0.1.0 2 28
r 1.114342 6 7 cbr 536 ------- 0 0.0.0.0 1.1.1.0 24 25
+ 1.114342 7 8 cbr 536 ------- 0 0.0.0.0 1.1.1.0 24 25
- 1.114342 7 8 cbr 536 ------- 0 0.0.0.0 1.1.1.0 24 25
r 1.114346 0 1 cbr 536 ------- 0 0.0.0.0 1.1.1.0 26 29
+ 1.114346 1 5 cbr 536 ------- 0 0.0.0.0 1.1.1.0 26 29
- 1.114346 1 5 cbr 536 ------- 0 0.0.0.0 1.1.1.0 26 29
r 1.115722 2 1 cbr 536 ------- 1 0.1.0.0 1.0.1.0 3 30
+ 1.115722 1 5 cbr 536 ------- 1 0.1.0.0 1.0.1.0 3 30
- 1.115722 1 5 cbr 536 ------- 1 0.1.0.0 1.0.1.0 3 30
r 1.115773 5 6 cbr 536 ------- 0 0.0.0.0 1.1.1.0 25 27
+ 1.115773 6 7 cbr 536 ------- 0 0.0.0.0 1.1.1.0 25 27
- 1.115773 6 7 cbr 536 ------- 0 0.0.0.0 1.1.1.0 25 27
+ 1.115776 0 1 cbr 536 ------- 0 0.0.0.0 1.1.1.0 27 31
- 1.115776 0 1 cbr 536 ------- 0 0.0.0.0 1.1.1.0 27 31
r 1.117149 5 6 cbr 536 ------- 1 0.1.0.0 1.0.1.0 2 28
+ 1.117152 2 1 cbr 536 ------- 1 0.1.0.0 1.0.1.0 4 32
- 1.117152 2 1 cbr 536 ------- 1 0.1.0.0 1.0.1.0 4 32
r 1.1172 7 8 cbr 536 ------- 0 0.0.0.0 1.1.1.0 24 25
r 1.117203 1 5 cbr 536 ------- 0 0.0.0.0 1.1.1.0 26 29
+ 1.117203 5 6 cbr 536 ------- 0 0.0.0.0 1.1.1.0 26 29
- 1.117203 5 6 cbr 536 ------- 0 0.0.0.0 1.1.1.0 26 29
r 1.118579 1 5 cbr 536 ------- 1 0.1.0.0 1.0.1.0 3 30
+ 1.118579 5 6 cbr 536 ------- 1 0.1.0.0 1.0.1.0 3 30
- 1.118579 5 6 cbr 536 ------- 1 0.1.0.0 1.0.1.0 3 30
r 1.11863 6 7 cbr 536 ------- 0 0.0.0.0 1.1.1.0 25 27
+ 1.11863 7 8 cbr 536 ------- 0 0.0.0.0 1.1.1.0 25 27
- 1.11863 7 8 cbr 536 ------- 0 0.0.0.0 1.1.1.0 25 27
r 1.118634 0 1 cbr 536 ------- 0 0.0.0.0 1.1.1.0 27 31
+ 1.118634 1 5 cbr 536 ------- 0 0.0.0.0 1.1.1.0 27 31
- 1.118634 1 5 cbr 536 ------- 0 0.0.0.0 1.1.1.0 27 31
r 1.12001 2 1 cbr 536 ------- 1 0.1.0.0 1.0.1.0 4 32
+ 1.12001 1 5 cbr 536 ------- 1 0.1.0.0 1.0.1.0 4 32
- 1.12001 1 5 cbr 536 ------- 1 0.1.0.0 1.0.1.0 4 32
r 1.120061 5 6 cbr 536 ------- 0 0.0.0.0 1.1.1.0 26 29
+ 1.120061 6 7 cbr 536 ------- 0 0.0.0.0 1.1.1.0 26 29
- 1.120061 6 7 cbr 536 ------- 0 0.0.0.0 1.1.1.0 26 29
+ 1.120064 0 1 cbr 536 ------- 0 0.0.0.0 1.1.1.0 28 33
- 1.120064 0 1 cbr 536 ------- 0 0.0.0.0 1.1.1.0 28 33
r 1.121437 5 6 cbr 536 ------- 1 0.1.0.0 1.0.1.0 3 30
+ 1.12144 2 1 cbr 536 ------- 1 0.1.0.0 1.0.1.0 5 34
- 1.12144 2 1 cbr 536 ------- 1 0.1.0.0 1.0.1.0 5 34
r 1.121488 7 8 cbr 536 ------- 0 0.0.0.0 1.1.1.0 25 27
r 1.121491 1 5 cbr 536 ------- 0 0.0.0.0 1.1.1.0 27 31
+ 1.121491 5 6 cbr 536 ------- 0 0.0.0.0 1.1.1.0 27 31
- 1.121491 5 6 cbr 536 ------- 0 0.0.0.0 1.1.1.0 27 31
r 1.122867 1 5 cbr 536 ------- 1 0.1.0.0 1.0.1.0 4 32
+ 1.122867 5 6 cbr 536 ------- 1 0.1.0.0 1.0.1.0 4 32
- 1.122867 5 6 cbr 536 ------- 1 0.1.0.0 1.0.1.0 4 32
r 1.122918 6 7 cbr 536 ------- 0 0.0.0.0 1.1.1.0 26 29
+ 1.122918 7 8 cbr 536 ------- 0 0.0.0.0 1.1.1.0 26 29
- 1.122918 7 8 cbr 536 ------- 0 0.0.0.0 1.1.1.0 26 29
r 1.122922 0 1 cbr 536 ------- 0 0.0.0.0 1.1.1.0 28 33
+ 1.122922 1 5 cbr 536 ------- 0 0.0.0.0 1.1.1.0 28 33
- 1.122922 1 5 cbr 536 ------- 0 0.0.0.0 1.1.1.0 28 33
r 1.124298 2 1 cbr 536 ------- 1 0.1.0.0 1.0.1.0 5 34
+ 1.124298 1 5 cbr 536 ------- 1 0.1.0.0 1.0.1.0 5 34
- 1.124298 1 5 cbr 536 ------- 1 0.1.0.0 1.0.1.0 5 34
r 1.124349 5 6 cbr 536 ------- 0 0.0.0.0 1.1.1.0 27 31
+ 1.124349 6 7 cbr 536 ------- 0 0.0.0.0 1.1.1.0 27 31
- 1.124349 6 7 cbr 536 ------- 0 0.0.0.0 1.1.1.0 27 31
+ 1.124352 0 1 cbr 536 ------- 0 0.0.0.0 1.1.1.0 29 35
- 1.124352 0 1 cbr 536 ------- 0 0.0.0.0 1.1.1.0 29 35
r 1.125725 5 6 cbr 536 ------- 1 0.1.0.0 1.0.1.0 4 32
+ 1.125728 2 1 cbr 536 ------- 1 0.1.0.0 1.0.1.0 6 36
- 1.125728 2 1 cbr 536 ------- 1 0.1.0.0 1.0.1.0 6 36
r 1.125776 7 8 cbr 536 ------- 0 0.0.0.0 1.1.1.0 26 29
r 1.125779 1 5 cbr 536 ------- 0 0.0.0.0 1.1.1.0 28 33
+ 1.125779 5 6 cbr 536 ------- 0 0.0.0.0 1.1.1.0 28 33
- 1.125779 5 6 cbr 536 ------- 0 0.0.0.0 1.1.1.0 28 33
r 1.127155 1 5 cbr 536 ------- 1 0.1.0.0 1.0.1.0 5 34
+ 1.127155 5 6 cbr 536 ------- 1 0.1.0.0 1.0.1.0 5 34
- 1.127155 5 6 cbr 536 ------- 1 0.1.0.0 1.0.1.0 5 34
r 1.127206 6 7 cbr 536 ------- 0 0.0.0.0 1.1.1.0 27 31
+ 1.127206 7 8 cbr 536 ------- 0 0.0.0.0 1.1.1.0 27 31
- 1.127206 7 8 cbr 536 ------- 0 0.0.0.0 1.1.1.0 27 31
r 1.12721 0 1 cbr 536 ------- 0 0.0.0.0 1.1.1.0 29 35
+ 1.12721 1 5 cbr 536 ------- 0 0.0.0.0 1.1.1.0 29 35
- 1.12721 1 5 cbr 536 ------- 0 0.0.0.0 1.1.1.0 29 35
r 1.128586 2 1 cbr 536 ------- 1 0.1.0.0 1.0.1.0 6 36
+ 1.128586 1 5 cbr 536 ------- 1 0.1.0.0 1.0.1.0 6 36
- 1.128586 1 5 cbr 536 ------- 1 0.1.0.0 1.0.1.0 6 36
r 1.128637 5 6 cbr 536 ------- 0 0.0.0.0 1.1.1.0 28 33
+ 1.128637 6 7 cbr 536 ------- 0 0.0.0.0 1.1.1.0 28 33
- 1.128637 6 7 cbr 536 ------- 0 0.0.0.0 1.1.1.0 28 33
+ 1.12864 0 1 cbr 536 ------- 0 0.0.0.0 1.1.1.0 30 37
- 1.12864 0 1 cbr 536 ------- 0 0.0.0.0 1.1.1.0 30 37
r 1.130013 5 6 cbr 536 ------- 1 0.1.0.0 1.0.1.0 5 34
+ 1.130016 2 1 cbr 536 ------- 1 0.1.0.0 1.0.1.0 7 38
- 1.130016 2 1 cbr 536 ------- 1 0.1.0.0 1.0.1.0 7 38
r 1.130064 7 8 cbr 536 ------- 0 0.0.0.0 1.1.1.0 27 31
r 1.130067 1 5 cbr 536 ------- 0 0.0.0.0 1.1.1.0 29 35
+ 1.130067 5 6 cbr 536 ------- 0 0.0.0.0 1.1.1.0 29 35
- 1.130067 5 6 cbr 536 ------- 0 0.0.0.0 1.1.1.0 29 35
r 1.131443 1 5 cbr 536 ------- 1 0.1.0.0 1.0.1.0 6 36
+ 1.131443 5 6 cbr 536 ------- 1 0.1.0.0 1.0.1.0 6 36
- 1.131443 5 6 cbr 536 ------- 1 0.1.0.0 1.0.1.0 6 36
r 1.131494 6 7 cbr 536 ------- 0 0.0.0.0 1.1.1.0 28 33
+ 1.131494 7 8 cbr 536 ------- 0 0.0.0.0 1.1.1.0 28 33
- 1.131494 7 8 cbr 536 ------- 0 0.0.0.0 1.1.1.0 28 33
r 1.131498 0 1 cbr 536 ------- 0 0.0.0.0 1.1.1.0 30 37
+ 1.131498 1 5 cbr 536 ------- 0 0.0.0.0 1.1.1.0 30 37
- 1.131498 1 5 cbr 536 ------- 0 0.0.0.0 1.1.1.0 30 37
r 1.132874 2 1 cbr 536 ------- 1 0.1.0.0 1.0.1.0 7 38
+ 1.132874 1 5 cbr 536 ------- 1 0.1.0.0 1.0.1.0 7 38
- 1.132874 1 5 cbr 536 ------- 1 0.1.0.0 1.0.1.0 7 38
r 1.132925 5 6 cbr 536 ------- 0 0.0.0.0 1.1.1.0 29 35
+ 1.132925 6 7 cbr 536 ------- 0 0.0.0.0 1.1.1.0 29 35
- 1.132925 6 7 cbr 536 ------- 0 0.0.0.0 1.1.1.0 29 35
+ 1.132928 0 1 cbr 536 ------- 0 0.0.0.0 1.1.1.0 31 39
- 1.132928 0 1 cbr 536 ------- 0 0.0.0.0 1.1.1.0 31 39
r 1.134301 5 6 cbr 536 ------- 1 0.1.0.0 1.0.1.0 6 36
+ 1.134304 2 1 cbr 536 ------- 1 0.1.0.0 1.0.1.0 8 40
- 1.134304 2 1 cbr 536 ------- 1 0.1.0.0 1.0.1.0 8 40
r 1.134352 7 8 cbr 536 ------- 0 0.0.0.0 1.1.1.0 28 33
r 1.134355 1 5 cbr 536 ------- 0 0.0.0.0 1.1.1.0 30 37
+ 1.134355 5 6 cbr 536 ------- 0 0.0.0.0 1.1.1.0 30 37
- 1.134355 5 6 cbr 536 ------- 0 0.0.0.0 1.1.1.0 30 37
r 1.135731 1 5 cbr 536 ------- 1 0.1.0.0 1.0.1.0 7 38
+ 1.135731 5 6 cbr 536 ------- 1 0.1.0.0 1.0.1.0 7 38
- 1.135731 5 6 cbr 536 ------- 1 0.1.0.0 1.0.1.0 7 38
r 1.135782 6 7 cbr 536 ------- 0 0.0.0.0 1.1.1.0 29 35
+ 1.135782 7 8 cbr 536 ------- 0 0.0.0.0 1.1.1.0 29 35
- 1.135782 7 8 cbr 536 ------- 0 0.0.0.0 1.1.1.0 29 35
r 1.135786 0 1 cbr 536 ------- 0 0.0.0.0 1.1.1.0 31 39
+ 1.135786 1 5 cbr 536 ------- 0 0.0.0.0 1.1.1.0 31 39
- 1.135786 1 5 cbr 536 ------- 0 0.0.0.0 1.1.1.0 31 39
r 1.137162 2 1 cbr 536 ------- 1 0.1.0.0 1.0.1.0 8 40
+ 1.137162 1 5 cbr 536 ------- 1 0.1.0.0 1.0.1.0 8 40
- 1.137162 1 5 cbr 536 ------- 1 0.1.0.0 1.0.1.0 8 40
r 1.137213 5 6 cbr 536 ------- 0 0.0.0.0 1.1.1.0 30 37
+ 1.137213 6 7 cbr 536 ------- 0 0.0.0.0 1.1.1.0 30 37
- 1.137213 6 7 cbr 536 ------- 0 0.0.0.0 1.1.1.0 30 37
+ 1.137216 0 1 cbr 536 ------- 0 0.0.0.0 1.1.1.0 32 41
- 1.137216 0 1 cbr 536 ------- 0 0.0.0.0 1.1.1.0 32 41
r 1.138589 5 6 cbr 536 ------- 1 0.1.0.0 1.0.1.0 7 38
+ 1.138592 2 1 cbr 536 ------- 1 0.1.0.0 1.0.1.0 9 42
- 1.138592 2 1 cbr 536 ------- 1 0.1.0.0 1.0.1.0 9 42
r 1.13864 7 8 cbr 536 ------- 0 0.0.0.0 1.1.1.0 29 35
r 1.138643 1 5 cbr 536 ------- 0 0.0.0.0 1.1.1.0 31 39
+ 1.138643 5 6 cbr 536 ------- 0 0.0.0.0 1.1.1.0 31 39
- 1.138643 5 6 cbr 536 ------- 0 0.0.0.0 1.1.1.0 31 39
r 1.140019 1 5 cbr 536 ------- 1 0.1.0.0 1.0.1.0 8 40
+ 1.140019 5 6 cbr 536 ------- 1 0.1.0.0 1.0.1.0 8 40
- 1.140019 5 6 cbr 536 ------- 1 0.1.0.0 1.0.1.0 8 40