+ 0.1 1 0 encap 556 ------- 0 1.3 2.0 -1 1
- 0.1 1 0 encap 556 ------- 0 1.3 2.0 -1 1
v 0.1 eval {set sim_annotation {0.10000000000000001 1 join-group 1073741824}}
v 0.1 eval {set sim_annotation {0.10000000000000001 0 join-group 1073741824}}
v 0.1 eval {set sim_annotation {0.10000000000000001 2 join-group 1073741824}}
+ 0.104288 1 0 encap 556 ------- 0 1.3 2.0 -1 3
- 0.104288 1 0 encap 556 ------- 0 1.3 2.0 -1 3
+ 0.108576 1 0 encap 556 ------- 0 1.3 2.0 -1 5
- 0.108576 1 0 encap 556 ------- 0 1.3 2.0 -1 5
+ 0.112864 1 0 encap 556 ------- 0 1.3 2.0 -1 7
- 0.112864 1 0 encap 556 ------- 0 1.3 2.0 -1 7
r 0.112965 1 0 encap 556 ------- 0 1.3 2.0 -1 1
+ 0.112965 0 2 encap 556 ------- 0 1.3 2.0 -1 1
- 0.112965 0 2 encap 556 ------- 0 1.3 2.0 -1 1
+ 0.117152 1 0 encap 556 ------- 0 1.3 2.0 -1 9
- 0.117152 1 0 encap 556 ------- 0 1.3 2.0 -1 9
r 0.117253 1 0 encap 556 ------- 0 1.3 2.0 -1 3
+ 0.117253 0 2 encap 556 ------- 0 1.3 2.0 -1 3
- 0.117253 0 2 encap 556 ------- 0 1.3 2.0 -1 3
+ 0.12144 1 0 encap 556 ------- 0 1.3 2.0 -1 11
- 0.12144 1 0 encap 556 ------- 0 1.3 2.0 -1 11
r 0.121541 1 0 encap 556 ------- 0 1.3 2.0 -1 5
+ 0.121541 0 2 encap 556 ------- 0 1.3 2.0 -1 5
- 0.121541 0 2 encap 556 ------- 0 1.3 2.0 -1 5
+ 0.125728 1 0 encap 556 ------- 0 1.3 2.0 -1 13
- 0.125728 1 0 encap 556 ------- 0 1.3 2.0 -1 13
r 0.125829 1 0 encap 556 ------- 0 1.3 2.0 -1 7
+ 0.125829 0 2 encap 556 ------- 0 1.3 2.0 -1 7
- 0.125829 0 2 encap 556 ------- 0 1.3 2.0 -1 7
r 0.125931 0 2 encap 556 ------- 0 1.3 2.0 -1 1
+ 0.125931 2 0 cbr 536 ------- 1 1.1 1073741824.0 0 0
- 0.125931 2 0 cbr 536 ------- 1 1.1 1073741824.0 0 0
+ 0.130016 1 0 encap 556 ------- 0 1.3 2.0 -1 15
- 0.130016 1 0 encap 556 ------- 0 1.3 2.0 -1 15
r 0.130117 1 0 encap 556 ------- 0 1.3 2.0 -1 9
+ 0.130117 0 2 encap 556 ------- 0 1.3 2.0 -1 9
- 0.130117 0 2 encap 556 ------- 0 1.3 2.0 -1 9
r 0.130219 0 2 encap 556 ------- 0 1.3 2.0 -1 3
+ 0.130219 2 0 cbr 536 ------- 1 1.1 1073741824.0 1 2
- 0.130219 2 0 cbr 536 ------- 1 1.1 1073741824.0 1 2
+ 0.134304 1 0 encap 556 ------- 0 1.3 2.0 -1 17
- 0.134304 1 0 encap 556 ------- 0 1.3 2.0 -1 17
r 0.134405 1 0 encap 556 ------- 0 1.3 2.0 -1 11
+ 0.134405 0 2 encap 556 ------- 0 1.3 2.0 -1 11
- 0.134405 0 2 encap 556 ------- 0 1.3 2.0 -1 11
r 0.134507 0 2 encap 556 ------- 0 1.3 2.0 -1 5
+ 0.134507 2 0 cbr 536 ------- 1 1.1 1073741824.0 2 4
- 0.134507 2 0 cbr 536 ------- 1 1.1 1073741824.0 2 4
+ 0.138592 1 0 encap 556 ------- 0 1.3 2.0 -1 19
- 0.138592 1 0 encap 556 ------- 0 1.3 2.0 -1 19
r 0.138693 1 0 encap 556 ------- 0 1.3 2.0 -1 13
+ 0.138693 0 2 encap 556 ------- 0 1.3 2.0 -1 13
- 0.138693 0 2 encap 556 ------- 0 1.3 2.0 -1 13
r 0.138789 2 0 cbr 536 ------- 1 1.1 1073741824.0 0 0
+ 0.138789 0 1 cbr 536 ------- 1 1.1 1073741824.0 0 0
- 0.138789 0 1 cbr 536 ------- 1 1.1 1073741824.0 0 0
r 0.138795 0 2 encap 556 ------- 0 1.3 2.0 -1 7
+ 0.138795 2 0 cbr 536 ------- 1 1.1 1073741824.0 3 6
- 0.138795 2 0 cbr 536 ------- 1 1.1 1073741824.0 3 6
+ 0.14288 1 0 encap 556 ------- 0 1.3 2.0 -1 21
- 0.14288 1 0 encap 556 ------- 0 1.3 2.0 -1 21
r 0.142981 1 0 encap 556 ------- 0 1.3 2.0 -1 15
+ 0.142981 0 2 encap 556 ------- 0 1.3 2.0 -1 15
- 0.142981 0 2 encap 556 ------- 0 1.3 2.0 -1 15
r 0.143077 2 0 cbr 536 ------- 1 1.1 1073741824.0 1 2
+ 0.143077 0 1 cbr 536 ------- 1 1.1 1073741824.0 1 2
- 0.143077 0 1 cbr 536 ------- 1 1.1 1073741824.0 1 2
r 0.143083 0 2 encap 556 ------- 0 1.3 2.0 -1 9
+ 0.143083 2 0 cbr 536 ------- 1 1.1 1073741824.0 4 8
- 0.143083 2 0 cbr 536 ------- 1 1.1 1073741824.0 4 8
+ 0.147168 1 0 encap 556 ------- 0 1.3 2.0 -1 23
- 0.147168 1 0 encap 556 ------- 0 1.3 2.0 -1 23
r 0.147269 1 0 encap 556 ------- 0 1.3 2.0 -1 17
+ 0.147269 0 2 encap 556 ------- 0 1.3 2.0 -1 17
- 0.147269 0 2 encap 556 ------- 0 1.3 2.0 -1 17
r 0.147365 2 0 cbr 536 ------- 1 1.1 1073741824.0 2 4
+ 0.147365 0 1 cbr 536 ------- 1 1.1 1073741824.0 2 4
- 0.147365 0 1 cbr 536 ------- 1 1.1 1073741824.0 2 4
r 0.147371 0 2 encap 556 ------- 0 1.3 2.0 -1 11
+ 0.147371 2 0 cbr 536 ------- 1 1.1 1073741824.0 5 10
- 0.147371 2 0 cbr 536 ------- 1 1.1 1073741824.0 5 10
+ 0.151456 1 0 encap 556 ------- 0 1.3 2.0 -1 25
- 0.151456 1 0 encap 556 ------- 0 1.3 2.0 -1 25
r 0.151557 1 0 encap 556 ------- 0 1.3 2.0 -1 19
+ 0.151557 0 2 encap 556 ------- 0 1.3 2.0 -1 19
- 0.151557 0 2 encap 556 ------- 0 1.3 2.0 -1 19
r 0.151648 0 1 cbr 536 ------- 1 1.1 1073741824.0 0 0
r 0.151653 2 0 cbr 536 ------- 1 1.1 1073741824.0 3 6
+ 0.151653 0 1 cbr 536 ------- 1 1.1 1073741824.0 3 6
- 0.151653 0 1 cbr 536 ------- 1 1.1 1073741824.0 3 6
r 0.151659 0 2 encap 556 ------- 0 1.3 2.0 -1 13
+ 0.151659 2 0 cbr 536 ------- 1 1.1 1073741824.0 6 12
- 0.151659 2 0 cbr 536 ------- 1 1.1 1073741824.0 6 12
+ 0.155744 1 0 encap 556 ------- 0 1.3 2.0 -1 27
- 0.155744 1 0 encap 556 ------- 0 1.3 2.0 -1 27
r 0.155845 1 0 encap 556 ------- 0 1.3 2.0 -1 21
+ 0.155845 0 2 encap 556 ------- 0 1.3 2.0 -1 21
- 0.155845 0 2 encap 556 ------- 0 1.3 2.0 -1 21
r 0.155936 0 1 cbr 536 ------- 1 1.1 1073741824.0 1 2
r 0.155941 2 0 cbr 536 ------- 1 1.1 1073741824.0 4 8
+ 0.155941 0 1 cbr 536 ------- 1 1.1 1073741824.0 4 8
- 0.155941 0 1 cbr 536 ------- 1 1.1 1073741824.0 4 8
r 0.155947 0 2 encap 556 ------- 0 1.3 2.0 -1 15
+ 0.155947 2 0 cbr 536 ------- 1 1.1 1073741824.0 7 14
- 0.155947 2 0 cbr 536 ------- 1 1.1 1073741824.0 7 14
+ 0.160032 1 0 encap 556 ------- 0 1.3 2.0 -1 29
- 0.160032 1 0 encap 556 ------- 0 1.3 2.0 -1 29
r 0.160133 1 0 encap 556 ------- 0 1.3 2.0 -1 23
+ 0.160133 0 2 encap 556 ------- 0 1.3 2.0 -1 23
- 0.160133 0 2 encap 556 ------- 0 1.3 2.0 -1 23
r 0.160224 0 1 cbr 536 ------- 1 1.1 1073741824.0 2 4
r 0.160229 2 0 cbr 536 ------- 1 1.1 1073741824.0 5 10
+ 0.160229 0 1 cbr 536 ------- 1 1.1 1073741824.0 5 10
- 0.160229 0 1 cbr 536 ------- 1 1.1 1073741824.0 5 10
r 0.160235 0 2 encap 556 ------- 0 1.3 2.0 -1 17
+ 0.160235 2 0 cbr 536 ------- 1 1.1 1073741824.0 8 16
- 0.160235 2 0 cbr 536 ------- 1 1.1 1073741824.0 8 16
+ 0.16432 1 0 encap 556 ------- 0 1.3 2.0 -1 31
- 0.16432 1 0 encap 556 ------- 0 1.3 2.0 -1 31
r 0.164421 1 0 encap 556 ------- 0 1.3 2.0 -1 25
+ 0.164421 0 2 encap 556 ------- 0 1.3 2.0 -1 25
- 0.164421 0 2 encap 556 ------- 0 1.3 2.0 -1 25
r 0.164512 0 1 cbr 536 ------- 1 1.1 1073741824.0 3 6
r 0.164517 2 0 cbr 536 ------- 1 1.1 1073741824.0 6 12
+ 0.164517 0 1 cbr 536 ------- 1 1.1 1073741824.0 6 12
- 0.164517 0 1 cbr 536 ------- 1 1.1 1073741824.0 6 12
r 0.164523 0 2 encap 556 ------- 0 1.3 2.0 -1 19
+ 0.164523 2 0 cbr 536 ------- 1 1.1 1073741824.0 9 18
- 0.164523 2 0 cbr 536 ------- 1 1.1 1073741824.0 9 18
+ 0.168608 1 0 encap 556 ------- 0 1.3 2.0 -1 33
- 0.168608 1 0 encap 556 ------- 0 1.3 2.0 -1 33
r 0.168709 1 0 encap 556 ------- 0 1.3 2.0 -1 27
+ 0.168709 0 2 encap 556 ------- 0 1.3 2.0 -1 27
- 0.168709 0 2 encap 556 ------- 0 1.3 2.0 -1 27
r 0.1688 0 1 cbr 536 ------- 1 1.1 1073741824.0 4 8
r 0.168805 2 0 cbr 536 ------- 1 1.1 1073741824.0 7 14
+ 0.168805 0 1 cbr 536 ------- 1 1.1 1073741824.0 7 14
- 0.168805 0 1 cbr 536 ------- 1 1.1 1073741824.0 7 14
r 0.168811 0 2 encap 556 ------- 0 1.3 2.0 -1 21
+ 0.168811 2 0 cbr 536 ------- 1 1.1 1073741824.0 10 20
- 0.168811 2 0 cbr 536 ------- 1 1.1 1073741824.0 10 20
+ 0.172896 1 0 encap 556 ------- 0 1.3 2.0 -1 35
- 0.172896 1 0 encap 556 ------- 0 1.3 2.0 -1 35
r 0.172997 1 0 encap 556 ------- 0 1.3 2.0 -1 29
+ 0.172997 0 2 encap 556 ------- 0 1.3 2.0 -1 29
- 0.172997 0 2 encap 556 ------- 0 1.3 2.0 -1 29
r 0.173088 0 1 cbr 536 ------- 1 1.1 1073741824.0 5 10
r 0.173093 2 0 cbr 536 ------- 1 1.1 1073741824.0 8 16
+ 0.173093 0 1 cbr 536 ------- 1 1.1 1073741824.0 8 16
- 0.173093 0 1 cbr 536 ------- 1 1.1 1073741824.0 8 16
r 0.173099 0 2 encap 556 ------- 0 1.3 2.0 -1 23
+ 0.173099 2 0 cbr 536 ------- 1 1.1 1073741824.0 11 22
- 0.173099 2 0 cbr 536 ------- 1 1.1 1073741824.0 11 22
+ 0.177184 1 0 encap 556 ------- 0 1.3 2.0 -1 37
- 0.177184 1 0 encap 556 ------- 0 1.3 2.0 -1 37
r 0.177285 1 0 encap 556 ------- 0 1.3 2.0 -1 31
+ 0.177285 0 2 encap 556 ------- 0 1.3 2.0 -1 31
- 0.177285 0 2 encap 556 ------- 0 1.3 2.0 -1 31
r 0.177376 0 1 cbr 536 ------- 1 1.1 1073741824.0 6 12
r 0.177381 2 0 cbr 536 ------- 1 1.1 1073741824.0 9 18
+ 0.177381 0 1 cbr 536 ------- 1 1.1 1073741824.0 9 18
- 0.177381 0 1 cbr 536 ------- 1 1.1 1073741824.0 9 18
r 0.177387 0 2 encap 556 ------- 0 1.3 2.0 -1 25
+ 0.177387 2 0 cbr 536 ------- 1 1.1 1073741824.0 12 24
- 0.177387 2 0 cbr 536 ------- 1 1.1 1073741824.0 12 24
+ 0.181472 1 0 encap 556 ------- 0 1.3 2.0 -1 39
- 0.181472 1 0 encap 556 ------- 0 1.3 2.0 -1 39
r 0.181573 1 0 encap 556 ------- 0 1.3 2.0 -1 33
+ 0.181573 0 2 encap 556 ------- 0 1.3 2.0 -1 33
- 0.181573 0 2 encap 556 ------- 0 1.3 2.0 -1 33
r 0.181664 0 1 cbr 536 ------- 1 1.1 1073741824.0 7 14
r 0.181669 2 0 cbr 536 ------- 1 1.1 1073741824.0 10 20
+ 0.181669 0 1 cbr 536 ------- 1 1.1 1073741824.0 10 20
- 0.181669 0 1 cbr 536 ------- 1 1.1 1073741824.0 10 20
r 0.181675 0 2 encap 556 ------- 0 1.3 2.0 -1 27
+ 0.181675 2 0 cbr 536 ------- 1 1.1 1073741824.0 13 26
- 0.181675 2 0 cbr 536 ------- 1 1.1 1073741824.0 13 26
+ 0.18576 1 0 encap 556 ------- 0 1.3 2.0 -1 41
- 0.18576 1 0 encap 556 ------- 0 1.3 2.0 -1 41
r 0.185861 1 0 encap 556 ------- 0 1.3 2.0 -1 35
+ 0.185861 0 2 encap 556 ------- 0 1.3 2.0 -1 35
- 0.185861 0 2 encap 556 ------- 0 1.3 2.0 -1 35
r 0.185952 0 1 cbr 536 ------- 1 1.1 1073741824.0 8 16
r 0.185957 2 0 cbr 536 ------- 1 1.1 1073741824.0 11 22
+ 0.185957 0 1 cbr 536 ------- 1 1.1 1073741824.0 11 22
- 0.185957 0 1 cbr 536 ------- 1 1.1 1073741824.0 11 22
r 0.185963 0 2 encap 556 ------- 0 1.3 2.0 -1 29
+ 0.185963 2 0 cbr 536 ------- 1 1.1 1073741824.0 14 28
- 0.185963 2 0 cbr 536 ------- 1 1.1 1073741824.0 14 28
+ 0.190048 1 0 encap 556 ------- 0 1.3 2.0 -1 43
- 0.190048 1 0 encap 556 ------- 0 1.3 2.0 -1 43
r 0.190149 1 0 encap 556 ------- 0 1.3 2.0 -1 37
+ 0.190149 0 2 encap 556 ------- 0 1.3 2.0 -1 37
- 0.190149 0 2 encap 556 ------- 0 1.3 2.0 -1 37
r 0.19024 0 1 cbr 536 ------- 1 1.1 1073741824.0 9 18
r 0.190245 2 0 cbr 536 ------- 1 1.1 1073741824.0 12 24
+ 0.190245 0 1 cbr 536 ------- 1 1.1 1073741824.0 12 24
- 0.190245 0 1 cbr 536 ------- 1 1.1 1073741824.0 12 24
r 0.190251 0 2 encap 556 ------- 0 1.3 2.0 -1 31
+ 0.190251 2 0 cbr 536 ------- 1 1.1 1073741824.0 15 30
- 0.190251 2 0 cbr 536 ------- 1 1.1 1073741824.0 15 30
+ 0.194336 1 0 encap 556 ------- 0 1.3 2.0 -1 45
- 0.194336 1 0 encap 556 ------- 0 1.3 2.0 -1 45
r 0.194437 1 0 encap 556 ------- 0 1.3 2.0 -1 39
+ 0.194437 0 2 encap 556 ------- 0 1.3 2.0 -1 39
- 0.194437 0 2 encap 556 ------- 0 1.3 2.0 -1 39
r 0.194528 0 1 cbr 536 ------- 1 1.1 1073741824.0 10 20
r 0.194533 2 0 cbr 536 ------- 1 1.1 1073741824.0 13 26
+ 0.194533 0 1 cbr 536 ------- 1 1.1 1073741824.0 13 26
- 0.194533 0 1 cbr 536 ------- 1 1.1 1073741824.0 13 26
r 0.194539 0 2 encap 556 ------- 0 1.3 2.0 -1 33
+ 0.194539 2 0 cbr 536 ------- 1 1.1 1073741824.0 16 32
- 0.194539 2 0 cbr 536 ------- 1 1.1 1073741824.0 16 32
+ 0.198624 1 0 encap 556 ------- 0 1.3 2.0 -1 47
- 0.198624 1 0 encap 556 ------- 0 1.3 2.0 -1 47
r 0.198725 1 0 encap 556 ------- 0 1.3 2.0 -1 41
+ 0.198725 0 2 encap 556 ------- 0 1.3 2.0 -1 41
- 0.198725 0 2 encap 556 ------- 0 1.3 2.0 -1 41
r 0.198816 0 1 cbr 536 ------- 1 1.1 1073741824.0 11 22
r 0.198821 2 0 cbr 536 ------- 1 1.1 1073741824.0 14 28
+ 0.198821 0 1 cbr 536 ------- 1 1.1 1073741824.0 14 28
- 0.198821 0 1 cbr 536 ------- 1 1.1 1073741824.0 14 28
r 0.198827 0 2 encap 556 ------- 0 1.3 2.0 -1 35
+ 0.198827 2 0 cbr 536 ------- 1 1.1 1073741824.0 17 34
- 0.198827 2 0 cbr 536 ------- 1 1.1 1073741824.0 17 34
+ 0.202912 1 0 encap 556 ------- 0 1.3 2.0 -1 49
- 0.202912 1 0 encap 556 ------- 0 1.3 2.0 -1 49
r 0.203013 1 0 encap 556 ------- 0 1.3 2.0 -1 43
+ 0.203013 0 2 encap 556 ------- 0 1.3 2.0 -1 43
- 0.203013 0 2 encap 556 ------- 0 1.3 2.0 -1 43
r 0.203104 0 1 cbr 536 ------- 1 1.1 1073741824.0 12 24
r 0.203109 2 0 cbr 536 ------- 1 1.1 1073741824.0 15 30
+ 0.203109 0 1 cbr 536 ------- 1 1.1 1073741824.0 15 30
- 0.203109 0 1 cbr 536 ------- 1 1.1 1073741824.0 15 30
r 0.203115 0 2 encap 556 ------- 0 1.3 2.0 -1 37
+ 0.203115 2 0 cbr 536 ------- 1 1.1 1073741824.0 18 36
- 0.203115 2 0 cbr 536 ------- 1 1.1 1073741824.0 18 36
+ 0.2072 1 0 encap 556 ------- 0 1.3 2.0 -1 51
- 0.2072 1 0 encap 556 ------- 0 1.3 2.0 -1 51
r 0.207301 1 0 encap 556 ------- 0 1.3 2.0 -1 45
+ 0.207301 0 2 encap 556 ------- 0 1.3 2.0 -1 45
- 0.207301 0 2 encap 556 ------- 0 1.3 2.0 -1 45
r 0.207392 0 1 cbr 536 ------- 1 1.1 1073741824.0 13 26
r 0.207397 2 0 cbr 536 ------- 1 1.1 1073741824.0 16 32
+ 0.207397 0 1 cbr 536 ------- 1 1.1 1073741824.0 16 32
- 0.207397 0 1 cbr 536 ------- 1 1.1 1073741824.0 16 32
r 0.207403 0 2 encap 556 ------- 0 1.3 2.0 -1 39
+ 0.207403 2 0 cbr 536 ------- 1 1.1 1073741824.0 19 38
- 0.207403 2 0 cbr 536 ------- 1 1.1 1073741824.0 19 38
+ 0.211488 1 0 encap 556 ------- 0 1.3 2.0 -1 53
- 0.211488 1 0 encap 556 ------- 0 1.3 2.0 -1 53
r 0.211589 1 0 encap 556 ------- 0 1.3 2.0 -1 47
+ 0.211589 0 2 encap 556 ------- 0 1.3 2.0 -1 47
- 0.211589 0 2 encap 556 ------- 0 1.3 2.0 -1 47
r 0.21168 0 1 cbr 536 ------- 1 1.1 1073741824.0 14 28
r 0.211685 2 0 cbr 536 ------- 1 1.1 1073741824.0 17 34
+ 0.211685 0 1 cbr 536 ------- 1 1.1 1073741824.0 17 34
- 0.211685 0 1 cbr 536 ------- 1 1.1 1073741824.0 17 34
r 0.211691 0 2 encap 556 ------- 0 1.3 2.0 -1 41
+ 0.211691 2 0 cbr 536 ------- 1 1.1 1073741824.0 20 40
- 0.211691 2 0 cbr 536 ------- 1 1.1 1073741824.0 20 40
+ 0.215776 1 0 encap 556 ------- 0 1.3 2.0 -1 55
- 0.215776 1 0 encap 556 ------- 0 1.3 2.0 -1 55
r 0.215877 1 0 encap 556 ------- 0 1.3 2.0 -1 49
+ 0.215877 0 2 encap 556 ------- 0 1.3 2.0 -1 49
- 0.215877 0 2 encap 556 ------- 0 1.3 2.0 -1 49
r 0.215968 0 1 cbr 536 ------- 1 1.1 1073741824.0 15 30
r 0.215973 2 0 cbr 536 ------- 1 1.1 1073741824.0 18 36
+ 0.215973 0 1 cbr 536 ------- 1 1.1 1073741824.0 18 36
- 0.215973 0 1 cbr 536 ------- 1 1.1 1073741824.0 18 36
r 0.215979 0 2 encap 556 ------- 0 1.3 2.0 -1 43
+ 0.215979 2 0 cbr 536 ------- 1 1.1 1073741824.0 21 42
- 0.215979 2 0 cbr 536 ------- 1 1.1 1073741824.0 21 42
+ 0.220064 1 0 encap 556 ------- 0 1.3 2.0 -1 57
- 0.220064 1 0 encap 556 ------- 0 1.3 2.0 -1 57
r 0.220165 1 0 encap 556 ------- 0 1.3 2.0 -1 51
+ 0.220165 0 2 encap 556 ------- 0 1.3 2.0 -1 51
- 0.220165 0 2 encap 556 ------- 0 1.3 2.0 -1 51
r 0.220256 0 1 cbr 536 ------- 1 1.1 1073741824.0 16 32
r 0.220261 2 0 cbr 536 ------- 1 1.1 1073741824.0 19 38
+ 0.220261 0 1 cbr 536 ------- 1 1.1 1073741824.0 19 38
- 0.220261 0 1 cbr 536 ------- 1 1.1 1073741824.0 19 38
r 0.220267 0 2 encap 556 ------- 0 1.3 2.0 -1 45
+ 0.220267 2 0 cbr 536 ------- 1 1.1 1073741824.0 22 44
- 0.220267 2 0 cbr 536 ------- 1 1.1 1073741824.0 22 44
+ 0.224352 1 0 encap 556 ------- 0 1.3 2.0 -1 59
- 0.224352 1 0 encap 556 ------- 0 1.3 2.0 -1 59
r 0.224453 1 0 encap 556 ------- 0 1.3 2.0 -1 53
+ 0.224453 0 2 encap 556 ------- 0 1.3 2.0 -1 53
- 0.224453 0 2 encap 556 ------- 0 1.3 2.0 -1 53
r 0.224544 0 1 cbr 536 ------- 1 1.1 1073741824.0 17 34
r 0.224549 2 0 cbr 536 ------- 1 1.1 1073741824.0 20 40
+ 0.224549 0 1 cbr 536 ------- 1 1.1 1073741824.0 20 40
- 0.224549 0 1 cbr 536 ------- 1 1.1 1073741824.0 20 40
r 0.224555 0 2 encap 556 ------- 0 1.3 2.0 -1 47
+ 0.224555 2 0 cbr 536 ------- 1 1.1 1073741824.0 23 46
- 0.224555 2 0 cbr 536 ------- 1 1.1 1073741824.0 23 46
+ 0.22864 1 0 encap 556 ------- 0 1.3 2.0 -1 61
- 0.22864 1 0 encap 556 ------- 0 1.3 2.0 -1 61
r 0.228741 1 0 encap 556 ------- 0 1.3 2.0 -1 55
+ 0.228741 0 2 encap 556 ------- 0 1.3 2.0 -1 55
- 0.228741 0 2 encap 556 ------- 0 1.3 2.0 -1 55
r 0.228832 0 1 cbr 536 ------- 1 1.1 1073741824.0 18 36
r 0.228837 2 0 cbr 536 ------- 1 1.1 1073741824.0 21 42
+ 0.228837 0 1 cbr 536 ------- 1 1.1 1073741824.0 21 42
- 0.228837 0 1 cbr 536 ------- 1 1.1 1073741824.0 21 42
r 0.228843 0 2 encap 556 ------- 0 1.3 2.0 -1 49
+ 0.228843 2 0 cbr 536 ------- 1 1.1 1073741824.0 24 48
- 0.228843 2 0 cbr 536 ------- 1 1.1 1073741824.0 24 48
+ 0.232928 1 0 encap 556 ------- 0 1.3 2.0 -1 63
- 0.232928 1 0 encap 556 ------- 0 1.3 2.0 -1 63
r 0.233029 1 0 encap 556 ------- 0 1.3 2.0 -1 57
+ 0.233029 0 2 encap 556 ------- 0 1.3 2.0 -1 57
- 0.233029 0 2 encap 556 ------- 0 1.3 2.0 -1 57
r 0.23312 0 1 cbr 536 ------- 1 1.1 1073741824.0 19 38
r 0.233125 2 0 cbr 536 ------- 1 1.1 1073741824.0 22 44
+ 0.233125 0 1 cbr 536 ------- 1 1.1 1073741824.0 22 44
- 0.233125 0 1 cbr 536 ------- 1 1.1 1073741824.0 22 44
r 0.233131 0 2 encap 556 ------- 0 1.3 2.0 -1 51
+ 0.233131 2 0 cbr 536 ------- 1 1.1 1073741824.0 25 50
- 0.233131 2 0 cbr 536 ------- 1 1.1 1073741824.0 25 50
+ 0.237216 1 0 encap 556 ------- 0 1.3 2.0 -1 65
- 0.237216 1 0 encap 556 ------- 0 1.3 2.0 -1 65
r 0.237317 1 0 encap 556 ------- 0 1.3 2.0 -1 59
+ 0.237317 0 2 encap 556 ------- 0 1.3 2.0 -1 59
- 0.237317 0 2 encap 556 ------- 0 1.3 2.0 -1 59
r 0.237408 0 1 cbr 536 ------- 1 1.1 1073741824.0 20 40
r 0.237413 2 0 cbr 536 ------- 1 1.1 1073741824.0 23 46
+ 0.237413 0 1 cbr 536 ------- 1 1.1 1073741824.0 23 46
- 0.237413 0 1 cbr 536 ------- 1 1.1 1073741824.0 23 46
r 0.237419 0 2 encap 556 ------- 0 1.3 2.0 -1 53
+ 0.237419 2 0 cbr 536 ------- 1 1.1 1073741824.0 26 52
- 0.237419 2 0 cbr 536 ------- 1 1.1 1073741824.0 26 52
+ 0.241504 1 0 encap 556 ------- 0 1.3 2.0 -1 67
- 0.241504 1 0 encap 556 ------- 0 1.3 2.0 -1 67
r 0.241605 1 0 encap 556 ------- 0 1.3 2.0 -1 61
+ 0.241605 0 2 encap 556 ------- 0 1.3 2.0 -1 61
- 0.241605 0 2 encap 556 ------- 0 1.3 2.0 -1 61
r 0.241696 0 1 cbr 536 ------- 1 1.1 1073741824.0 21 42
r 0.241701 2 0 cbr 536 ------- 1 1.1 1073741824.0 24 48
+ 0.241701 0 1 cbr 536 ------- 1 1.1 1073741824.0 24 48
- 0.241701 0 1 cbr 536 ------- 1 1.1 1073741824.0 24 48
r 0.241707 0 2 encap 556 ------- 0 1.3 2.0 -1 55
+ 0.241707 2 0 cbr 536 ------- 1 1.1 1073741824.0 27 54
- 0.241707 2 0 cbr 536 ------- 1 1.1 1073741824.0 27 54
+ 0.245792 1 0 encap 556 ------- 0 1.3 2.0 -1 69
- 0.245792 1 0 encap 556 ------- 0 1.3 2.0 -1 69
r 0.245893 1 0 encap 556 ------- 0 1.3 2.0 -1 63
+ 0.245893 0 2 encap 556 ------- 0 1.3 2.0 -1 63
- 0.245893 0 2 encap 556 ------- 0 1.3 2.0 -1 63
r 0.245984 0 1 cbr 536 ------- 1 1.1 1073741824.0 22 44
r 0.245989 2 0 cbr 536 ------- 1 1.1 1073741824.0 25 50
+ 0.245989 0 1 cbr 536 ------- 1 1.1 1073741824.0 25 50
- 0.245989 0 1 cbr 536 ------- 1 1.1 1073741824.0 25 50
r 0.245995 0 2 encap 556 ------- 0 1.3 2.0 -1 57
+ 0.245995 2 0 cbr 536 ------- 1 1.1 1073741824.0 28 56
- 0.245995 2 0 cbr 536 ------- 1 1.1 1073741824.0 28 56
+ 0.25008 1 0 encap 556 ------- 0 1.3 2.0 -1 71
- 0.25008 1 0 encap 556 ------- 0 1.3 2.0 -1 71
r 0.250181 1 0 encap 556 ------- 0 1.3 2.0 -1 65
+ 0.250181 0 2 encap 556 ------- 0 1.3 2.0 -1 65
- 0.250181 0 2 encap 556 ------- 0 1.3 2.0 -1 65
r 0.250272 0 1 cbr 536 ------- 1 1.1 1073741824.0 23 46
r 0.250277 2 0 cbr 536 ------- 1 1.1 1073741824.0 26 52
+ 0.250277 0 1 cbr 536 ------- 1 1.1 1073741824.0 26 52
- 0.250277 0 1 cbr 536 ------- 1 1.1 1073741824.0 26 52
r 0.250283 0 2 encap 556 ------- 0 1.3 2.0 -1 59
+ 0.250283 2 0 cbr 536 ------- 1 1.1 1073741824.0 29 58
- 0.250283 2 0 cbr 536 ------- 1 1.1 1073741824.0 29 58
+ 0.254368 1 0 encap 556 ------- 0 1.3 2.0 -1 73
- 0.254368 1 0 encap 556 ------- 0 1.3 2.0 -1 73
r 0.254469 1 0 encap 556 ------- 0 1.3 2.0 -1 67
+ 0.254469 0 2 encap 556 ------- 0 1.3 2.0 -1 67
- 0.254469 0 2 encap 556 ------- 0 1.3 2.0 -1 67
r 0.25456 0 1 cbr 536 ------- 1 1.1 1073741824.0 24 48
r 0.254565 2 0 cbr 536 ------- 1 1.1 1073741824.0 27 54
+ 0.254565 0 1 cbr 536 ------- 1 1.1 1073741824.0 27 54
- 0.254565 0 1 cbr 536 ------- 1 1.1 1073741824.0 27 54
r 0.254571 0 2 encap 556 ------- 0 1.3 2.0 -1 61
+ 0.254571 2 0 cbr 536 ------- 1 1.1 1073741824.0 30 60
- 0.254571 2 0 cbr 536 ------- 1 1.1 1073741824.0 30 60
+ 0.258656 1 0 encap 556 ------- 0 1.3 2.0 -1 75
- 0.258656 1 0 encap 556 ------- 0 1.3 2.0 -1 75
r 0.258757 1 0 encap 556 ------- 0 1.3 2.0 -1 69
+ 0.258757 0 2 encap 556 ------- 0 1.3 2.0 -1 69
- 0.258757 0 2 encap 556 ------- 0 1.3 2.0 -1 69
r 0.258848 0 1 cbr 536 ------- 1 1.1 1073741824.0 25 50
r 0.258853 2 0 cbr 536 ------- 1 1.1 1073741824.0 28 56
+ 0.258853 0 1 cbr 536 ------- 1 1.1 1073741824.0 28 56
- 0.258853 0 1 cbr 536 ------- 1 1.1 1073741824.0 28 56
r 0.258859 0 2 encap 556 ------- 0 1.3 2.0 -1 63
+ 0.258859 2 0 cbr 536 ------- 1 1.1 1073741824.0 31 62
- 0.258859 2 0 cbr 536 ------- 1 1.1 1073741824.0 31 62
+ 0.262944 1 0 encap 556 ------- 0 1.3 2.0 -1 77
- 0.262944 1 0 encap 556 ------- 0 1.3 2.0 -1 77
r 0.263045 1 0 encap 556 ------- 0 1.3 2.0 -1 71
+ 0.263045 0 2 encap 556 ------- 0 1.3 2.0 -1 71
- 0.263045 0 2 encap 556 ------- 0 1.3 2.0 -1 71
r 0.263136 0 1 cbr 536 ------- 1 1.1 1073741824.0 26 52
r 0.263141 2 0 cbr 536 ------- 1 1.1 1073741824.0 29 58
+ 0.263141 0 1 cbr 536 ------- 1 1.1 1073741824.0 29 58
- 0.263141 0 1 cbr 536 ------- 1 1.1 1073741824.0 29 58
r 0.263147 0 2 encap 556 ------- 0 1.3 2.0 -1 65
+ 0.263147 2 0 cbr 536 ------- 1 1.1 1073741824.0 32 64
- 0.263147 2 0 cbr 536 ------- 1 1.1 1073741824.0 32 64
+ 0.267232 1 0 encap 556 ------- 0 1.3 2.0 -1 79
- 0.267232 1 0 encap 556 ------- 0 1.3 2.0 -1 79
r 0.267333 1 0 encap 556 ------- 0 1.3 2.0 -1 73
+ 0.267333 0 2 encap 556 ------- 0 1.3 2.0 -1 73
- 0.267333 0 2 encap 556 ------- 0 1.3 2.0 -1 73
r 0.267424 0 1 cbr 536 ------- 1 1.1 1073741824.0 27 54
r 0.267429 2 0 cbr 536 ------- 1 1.1 1073741824.0 30 60
+ 0.267429 0 1 cbr 536 ------- 1 1.1 1073741824.0 30 60
- 0.267429 0 1 cbr 536 ------- 1 1.1 1073741824.0 30 60
r 0.267435 0 2 encap 556 ------- 0 1.3 2.0 -1 67
+ 0.267435 2 0 cbr 536 ------- 1 1.1 1073741824.0 33 66
- 0.267435 2 0 cbr 536 ------- 1 1.1 1073741824.0 33 66
+ 0.27152 1 0 encap 556 ------- 0 1.3 2.0 -1 81
- 0.27152 1 0 encap 556 ------- 0 1.3 2.0 -1 81
r 0.271621 1 0 encap 556 ------- 0 1.3 2.0 -1 75
+ 0.271621 0 2 encap 556 ------- 0 1.3 2.0 -1 75
- 0.271621 0 2 encap 556 ------- 0 1.3 2.0 -1 75
r 0.271712 0 1 cbr 536 ------- 1 1.1 1073741824.0 28 56
r 0.271717 2 0 cbr 536 ------- 1 1.1 1073741824.0 31 62
+ 0.271717 0 1 cbr 536 ------- 1 1.1 1073741824.0 31 62
- 0.271717 0 1 cbr 536 ------- 1 1.1 1073741824.0 31 62
r 0.271723 0 2 encap 556 ------- 0 1.3 2.0 -1 69
+ 0.271723 2 0 cbr 536 ------- 1 1.1 1073741824.0 34 68
- 0.271723 2 0 cbr 536 ------- 1 1.1 1073741824.0 34 68
+ 0.275808 1 0 encap 556 ------- 0 1.3 2.0 -1 83
- 0.275808 1 0 encap 556 ------- 0 1.3 2.0 -1 83
r 0.275909 1 0 encap 556 ------- 0 1.3 2.0 -1 77
+ 0.275909 0 2 encap 556 ------- 0 1.3 2.0 -1 77
- 0.275909 0 2 encap 556 ------- 0 1.3 2.0 -1 77
r 0.276 0 1 cbr 536 ------- 1 1.1 1073741824.0 29 58
r 0.276005 2 0 cbr 536 ------- 1 1.1 1073741824.0 32 64
+ 0.276005 0 1 cbr 536 ------- 1 1.1 1073741824.0 32 64
- 0.276005 0 1 cbr 536 ------- 1 1.1 1073741824.0 32 64
r 0.276011 0 2 encap 556 ------- 0 1.3 2.0 -1 71
+ 0.276011 2 0 cbr 536 ------- 1 1.1 1073741824.0 35 70
- 0.276011 2 0 cbr 536 ------- 1 1.1 1073741824.0 35 70
+ 0.280096 1 0 encap 556 ------- 0 1.3 2.0 -1 85
- 0.280096 1 0 encap 556 ------- 0 1.3 2.0 -1 85
r 0.280197 1 0 encap 556 ------- 0 1.3 2.0 -1 79
+ 0.280197 0 2 encap 556 ------- 0 1.3 2.0 -1 79
- 0.280197 0 2 encap 556 ------- 0 1.3 2.0 -1 79
r 0.280288 0 1 cbr 536 ------- 1 1.1 1073741824.0 30 60
r 0.280293 2 0 cbr 536 ------- 1 1.1 1073741824.0 33 66
+ 0.280293 0 1 cbr 536 ------- 1 1.1 1073741824.0 33 66
- 0.280293 0 1 cbr 536 ------- 1 1.1 1073741824.0 33 66
r 0.280299 0 2 encap 556 ------- 0 1.3 2.0 -1 73
+ 0.280299 2 0 cbr 536 ------- 1 1.1 1073741824.0 36 72
- 0.280299 2 0 cbr 536 ------- 1 1.1 1073741824.0 36 72
+ 0.284384 1 0 encap 556 ------- 0 1.3 2.0 -1 87
- 0.284384 1 0 encap 556 ------- 0 1.3 2.0 -1 87
r 0.284485 1 0 encap 556 ------- 0 1.3 2.0 -1 81
+ 0.284485 0 2 encap 556 ------- 0 1.3 2.0 -1 81
- 0.284485 0 2 encap 556 ------- 0 1.3 2.0 -1 81
r 0.284576 0 1 cbr 536 ------- 1 1.1 1073741824.0 31 62
r 0.284581 2 0 cbr 536 ------- 1 1.1 1073741824.0 34 68
+ 0.284581 0 1 cbr 536 ------- 1 1.1 1073741824.0 34 68
- 0.284581 0 1 cbr 536 ------- 1 1.1 1073741824.0 34 68
r 0.284587 0 2 encap 556 ------- 0 1.3 2.0 -1 75
+ 0.284587 2 0 cbr 536 ------- 1 1.1 1073741824.0 37 74
- 0.284587 2 0 cbr 536 ------- 1 1.1 1073741824.0 37 74
+ 0.288672 1 0 encap 556 ------- 0 1.3 2.0 -1 89
- 0.288672 1 0 encap 556 ------- 0 1.3 2.0 -1 89
r 0.288773 1 0 encap 556 ------- 0 1.3 2.0 -1 83
+ 0.288773 0 2 encap 556 ------- 0 1.3 2.0 -1 83
- 0.288773 0 2 encap 556 ------- 0 1.3 2.0 -1 83
r 0.288864 0 1 cbr 536 ------- 1 1.1 1073741824.0 32 64
r 0.288869 2 0 cbr 536 ------- 1 1.1 1073741824.0 35 70
+ 0.288869 0 1 cbr 536 ------- 1 1.1 1073741824.0 35 70
- 0.288869 0 1 cbr 536 ------- 1 1.1 1073741824.0 35 70
r 0.288875 0 2 encap 556 ------- 0 1.3 2.0 -1 77
+ 0.288875 2 0 cbr 536 ------- 1 1.1 1073741824.0 38 76
- 0.288875 2 0 cbr 536 ------- 1 1.1 1073741824.0 38 76
+ 0.29296 1 0 encap 556 ------- 0 1.3 2.0 -1 91
- 0.29296 1 0 encap 556 ------- 0 1.3 2.0 -1 91
r 0.293061 1 0 encap 556 ------- 0 1.3 2.0 -1 85
+ 0.293061 0 2 encap 556 ------- 0 1.3 2.0 -1 85
- 0.293061 0 2 encap 556 ------- 0 1.3 2.0 -1 85
r 0.293152 0 1 cbr 536 ------- 1 1.1 1073741824.0 33 66
r 0.293157 2 0 cbr 536 ------- 1 1.1 1073741824.0 36 72
+ 0.293157 0 1 cbr 536 ------- 1 1.1 1073741824.0 36 72
- 0.293157 0 1 cbr 536 ------- 1 1.1 1073741824.0 36 72
r 0.293163 0 2 encap 556 ------- 0 1.3 2.0 -1 79
+ 0.293163 2 0 cbr 536 ------- 1 1.1 1073741824.0 39 78
- 0.293163 2 0 cbr 536 ------- 1 1.1 1073741824.0 39 78
+ 0.297248 1 0 encap 556 ------- 0 1.3 2.0 -1 93
- 0.297248 1 0 encap 556 ------- 0 1.3 2.0 -1 93
r 0.297349 1 0 encap 556 ------- 0 1.3 2.0 -1 87
+ 0.297349 0 2 encap 556 ------- 0 1.3 2.0 -1 87
- 0.297349 0 2 encap 556 ------- 0 1.3 2.0 -1 87
r 0.29744 0 1 cbr 536 ------- 1 1.1 1073741824.0 34 68
r 0.297445 2 0 cbr 536 ------- 1 1.1 1073741824.0 37 74
+ 0.297445 0 1 cbr 536 ------- 1 1.1 1073741824.0 37 74
- 0.297445 0 1 cbr 536 ------- 1 1.1 1073741824.0 37 74
r 0.297451 0 2 encap 556 ------- 0 1.3 2.0 -1 81
+ 0.297451 2 0 cbr 536 ------- 1 1.1 1073741824.0 40 80
- 0.297451 2 0 cbr 536 ------- 1 1.1 1073741824.0 40 80
v 0.3 eval {set sim_annotation {1073741824 switch tree type}}
+ 0.301536 1 0 cbr 536 ------- 1 1.1 1073741824.0 47 94
- 0.301536 1 0 cbr 536 ------- 1 1.1 1073741824.0 47 94
r 0.301637 1 0 encap 556 ------- 0 1.3 2.0 -1 89
+ 0.301637 0 2 encap 556 ------- 0 1.3 2.0 -1 89
- 0.301637 0 2 encap 556 ------- 0 1.3 2.0 -1 89
r 0.301728 0 1 cbr 536 ------- 1 1.1 1073741824.0 35 70
r 0.301733 2 0 cbr 536 ------- 1 1.1 1073741824.0 38 76
r 0.301739 0 2 encap 556 ------- 0 1.3 2.0 -1 83
+ 0.305824 1 0 cbr 536 ------- 1 1.1 1073741824.0 48 95
- 0.305824 1 0 cbr 536 ------- 1 1.1 1073741824.0 48 95
r 0.305925 1 0 encap 556 ------- 0 1.3 2.0 -1 91
+ 0.305925 0 2 encap 556 ------- 0 1.3 2.0 -1 91
- 0.305925 0 2 encap 556 ------- 0 1.3 2.0 -1 91
r 0.306016 0 1 cbr 536 ------- 1 1.1 1073741824.0 36 72
r 0.306021 2 0 cbr 536 ------- 1 1.1 1073741824.0 39 78
r 0.306027 0 2 encap 556 ------- 0 1.3 2.0 -1 85
+ 0.310112 1 0 cbr 536 ------- 1 1.1 1073741824.0 49 96
- 0.310112 1 0 cbr 536 ------- 1 1.1 1073741824.0 49 96
r 0.310213 1 0 encap 556 ------- 0 1.3 2.0 -1 93
+ 0.310213 0 2 encap 556 ------- 0 1.3 2.0 -1 93
- 0.310213 0 2 encap 556 ------- 0 1.3 2.0 -1 93
r 0.310304 0 1 cbr 536 ------- 1 1.1 1073741824.0 37 74
r 0.310309 2 0 cbr 536 ------- 1 1.1 1073741824.0 40 80
r 0.310315 0 2 encap 556 ------- 0 1.3 2.0 -1 87
r 0.314395 1 0 cbr 536 ------- 1 1.1 1073741824.0 47 94
+ 0.314395 0 2 cbr 536 ------- 1 1.1 1073741824.0 47 94
- 0.314395 0 2 cbr 536 ------- 1 1.1 1073741824.0 47 94
+ 0.3144 1 0 cbr 536 ------- 1 1.1 1073741824.0 50 97
- 0.3144 1 0 cbr 536 ------- 1 1.1 1073741824.0 50 97
r 0.314603 0 2 encap 556 ------- 0 1.3 2.0 -1 89
r 0.318683 1 0 cbr 536 ------- 1 1.1 1073741824.0 48 95
+ 0.318683 0 2 cbr 536 ------- 1 1.1 1073741824.0 48 95
- 0.318683 0 2 cbr 536 ------- 1 1.1 1073741824.0 48 95
+ 0.318688 1 0 cbr 536 ------- 1 1.1 1073741824.0 51 98
- 0.318688 1 0 cbr 536 ------- 1 1.1 1073741824.0 51 98
r 0.318891 0 2 encap 556 ------- 0 1.3 2.0 -1 91
r 0.322971 1 0 cbr 536 ------- 1 1.1 1073741824.0 49 96
+ 0.322971 0 2 cbr 536 ------- 1 1.1 1073741824.0 49 96
- 0.322971 0 2 cbr 536 ------- 1 1.1 1073741824.0 49 96
+ 0.322976 1 0 cbr 536 ------- 1 1.1 1073741824.0 52 99
- 0.322976 1 0 cbr 536 ------- 1 1.1 1073741824.0 52 99
r 0.323179 0 2 encap 556 ------- 0 1.3 2.0 -1 93
r 0.327253 0 2 cbr 536 ------- 1 1.1 1073741824.0 47 94
r 0.327259 1 0 cbr 536 ------- 1 1.1 1073741824.0 50 97
+ 0.327259 0 2 cbr 536 ------- 1 1.1 1073741824.0 50 97
- 0.327259 0 2 cbr 536 ------- 1 1.1 1073741824.0 50 97
+ 0.327264 1 0 cbr 536 ------- 1 1.1 1073741824.0 53 100
- 0.327264 1 0 cbr 536 ------- 1 1.1 1073741824.0 53 100
r 0.331541 0 2 cbr 536 ------- 1 1.1 1073741824.0 48 95
r 0.331547 1 0 cbr 536 ------- 1 1.1 1073741824.0 51 98
+ 0.331547 0 2 cbr 536 ------- 1 1.1 1073741824.0 51 98
- 0.331547 0 2 cbr 536 ------- 1 1.1 1073741824.0 51 98
+ 0.331552 1 0 cbr 536 ------- 1 1.1 1073741824.0 54 101
- 0.331552 1 0 cbr 536 ------- 1 1.1 1073741824.0 54 101
r 0.335829 0 2 cbr 536 ------- 1 1.1 1073741824.0 49 96
r 0.335835 1 0 cbr 536 ------- 1 1.1 1073741824.0 52 99
+ 0.335835 0 2 cbr 536 ------- 1 1.1 1073741824.0 52 99
- 0.335835 0 2 cbr 536 ------- 1 1.1 1073741824.0 52 99
+ 0.33584 1 0 cbr 536 ------- 1 1.1 1073741824.0 55 102
- 0.33584 1 0 cbr 536 ------- 1 1.1 1073741824.0 55 102
r 0.340117 0 2 cbr 536 ------- 1 1.1 1073741824.0 50 97
r 0.340123 1 0 cbr 536 ------- 1 1.1 1073741824.0 53 100
+ 0.340123 0 2 cbr 536 ------- 1 1.1 1073741824.0 53 100
- 0.340123 0 2 cbr 536 ------- 1 1.1 1073741824.0 53 100
+ 0.340128 1 0 cbr 536 ------- 1 1.1 1073741824.0 56 103
- 0.340128 1 0 cbr 536 ------- 1 1.1 1073741824.0 56 103
r 0.344405 0 2 cbr 536 ------- 1 1.1 1073741824.0 51 98
r 0.344411 1 0 cbr 536 ------- 1 1.1 1073741824.0 54 101
+ 0.344411 0 2 cbr 536 ------- 1 1.1 1073741824.0 54 101
- 0.344411 0 2 cbr 536 ------- 1 1.1 1073741824.0 54 101