+ 0.1 4 1 encap 556 ------- 0 4.3 2.0 -1 1
- 0.1 4 1 encap 556 ------- 0 4.3 2.0 -1 1
v 0.1 eval {set sim_annotation {0.10000000000000001 1 join-group 1073741824}}
v 0.1 eval {set sim_annotation {0.10000000000000001 0 join-group 1073741824}}
v 0.1 eval {set sim_annotation {0.10000000000000001 3 join-group 1073741824}}
v 0.1 eval {set sim_annotation {0.10000000000000001 2 join-group 1073741824}}
v 0.1 eval {set sim_annotation {0.10000000000000001 4 join-group 1073741824}}
v 0.1 eval {set sim_annotation {0.10000000000000001 5 join-group 1073741824}}
+ 0.104288 4 1 encap 556 ------- 0 4.3 2.0 -1 3
- 0.104288 4 1 encap 556 ------- 0 4.3 2.0 -1 3
+ 0.108576 4 1 encap 556 ------- 0 4.3 2.0 -1 5
- 0.108576 4 1 encap 556 ------- 0 4.3 2.0 -1 5
+ 0.112864 4 1 encap 556 ------- 0 4.3 2.0 -1 7
- 0.112864 4 1 encap 556 ------- 0 4.3 2.0 -1 7
r 0.112965 4 1 encap 556 ------- 0 4.3 2.0 -1 1
+ 0.112965 1 0 encap 556 ------- 0 4.3 2.0 -1 1
- 0.112965 1 0 encap 556 ------- 0 4.3 2.0 -1 1
+ 0.117152 4 1 encap 556 ------- 0 4.3 2.0 -1 9
- 0.117152 4 1 encap 556 ------- 0 4.3 2.0 -1 9
r 0.117253 4 1 encap 556 ------- 0 4.3 2.0 -1 3
+ 0.117253 1 0 encap 556 ------- 0 4.3 2.0 -1 3
- 0.117253 1 0 encap 556 ------- 0 4.3 2.0 -1 3
+ 0.12144 4 1 encap 556 ------- 0 4.3 2.0 -1 11
- 0.12144 4 1 encap 556 ------- 0 4.3 2.0 -1 11
r 0.121541 4 1 encap 556 ------- 0 4.3 2.0 -1 5
+ 0.121541 1 0 encap 556 ------- 0 4.3 2.0 -1 5
- 0.121541 1 0 encap 556 ------- 0 4.3 2.0 -1 5
+ 0.125728 4 1 encap 556 ------- 0 4.3 2.0 -1 13
- 0.125728 4 1 encap 556 ------- 0 4.3 2.0 -1 13
r 0.125829 4 1 encap 556 ------- 0 4.3 2.0 -1 7
+ 0.125829 1 0 encap 556 ------- 0 4.3 2.0 -1 7
- 0.125829 1 0 encap 556 ------- 0 4.3 2.0 -1 7
r 0.125931 1 0 encap 556 ------- 0 4.3 2.0 -1 1
+ 0.125931 0 2 encap 556 ------- 0 4.3 2.0 -1 1
- 0.125931 0 2 encap 556 ------- 0 4.3 2.0 -1 1
+ 0.130016 4 1 encap 556 ------- 0 4.3 2.0 -1 15
- 0.130016 4 1 encap 556 ------- 0 4.3 2.0 -1 15
r 0.130117 4 1 encap 556 ------- 0 4.3 2.0 -1 9
+ 0.130117 1 0 encap 556 ------- 0 4.3 2.0 -1 9
- 0.130117 1 0 encap 556 ------- 0 4.3 2.0 -1 9
r 0.130219 1 0 encap 556 ------- 0 4.3 2.0 -1 3
+ 0.130219 0 2 encap 556 ------- 0 4.3 2.0 -1 3
- 0.130219 0 2 encap 556 ------- 0 4.3 2.0 -1 3
+ 0.134304 4 1 encap 556 ------- 0 4.3 2.0 -1 17
- 0.134304 4 1 encap 556 ------- 0 4.3 2.0 -1 17
r 0.134405 4 1 encap 556 ------- 0 4.3 2.0 -1 11
+ 0.134405 1 0 encap 556 ------- 0 4.3 2.0 -1 11
- 0.134405 1 0 encap 556 ------- 0 4.3 2.0 -1 11
r 0.134507 1 0 encap 556 ------- 0 4.3 2.0 -1 5
+ 0.134507 0 2 encap 556 ------- 0 4.3 2.0 -1 5
- 0.134507 0 2 encap 556 ------- 0 4.3 2.0 -1 5
+ 0.138592 4 1 encap 556 ------- 0 4.3 2.0 -1 19
- 0.138592 4 1 encap 556 ------- 0 4.3 2.0 -1 19
r 0.138693 4 1 encap 556 ------- 0 4.3 2.0 -1 13
+ 0.138693 1 0 encap 556 ------- 0 4.3 2.0 -1 13
- 0.138693 1 0 encap 556 ------- 0 4.3 2.0 -1 13
r 0.138795 1 0 encap 556 ------- 0 4.3 2.0 -1 7
+ 0.138795 0 2 encap 556 ------- 0 4.3 2.0 -1 7
- 0.138795 0 2 encap 556 ------- 0 4.3 2.0 -1 7
r 0.138896 0 2 encap 556 ------- 0 4.3 2.0 -1 1
+ 0.138896 2 0 cbr 536 ------- 1 4.1 1073741824.0 0 0
- 0.138896 2 0 cbr 536 ------- 1 4.1 1073741824.0 0 0
+ 0.138896 2 5 cbr 536 ------- 1 4.1 1073741824.0 0 0
- 0.138896 2 5 cbr 536 ------- 1 4.1 1073741824.0 0 0
+ 0.14288 4 1 encap 556 ------- 0 4.3 2.0 -1 21
- 0.14288 4 1 encap 556 ------- 0 4.3 2.0 -1 21
r 0.142981 4 1 encap 556 ------- 0 4.3 2.0 -1 15
+ 0.142981 1 0 encap 556 ------- 0 4.3 2.0 -1 15
- 0.142981 1 0 encap 556 ------- 0 4.3 2.0 -1 15
r 0.143083 1 0 encap 556 ------- 0 4.3 2.0 -1 9
+ 0.143083 0 2 encap 556 ------- 0 4.3 2.0 -1 9
- 0.143083 0 2 encap 556 ------- 0 4.3 2.0 -1 9
r 0.143184 0 2 encap 556 ------- 0 4.3 2.0 -1 3
+ 0.143184 2 0 cbr 536 ------- 1 4.1 1073741824.0 1 2
- 0.143184 2 0 cbr 536 ------- 1 4.1 1073741824.0 1 2
+ 0.143184 2 5 cbr 536 ------- 1 4.1 1073741824.0 1 2
- 0.143184 2 5 cbr 536 ------- 1 4.1 1073741824.0 1 2
+ 0.147168 4 1 encap 556 ------- 0 4.3 2.0 -1 23
- 0.147168 4 1 encap 556 ------- 0 4.3 2.0 -1 23
r 0.147269 4 1 encap 556 ------- 0 4.3 2.0 -1 17
+ 0.147269 1 0 encap 556 ------- 0 4.3 2.0 -1 17
- 0.147269 1 0 encap 556 ------- 0 4.3 2.0 -1 17
r 0.147371 1 0 encap 556 ------- 0 4.3 2.0 -1 11
+ 0.147371 0 2 encap 556 ------- 0 4.3 2.0 -1 11
- 0.147371 0 2 encap 556 ------- 0 4.3 2.0 -1 11
r 0.147472 0 2 encap 556 ------- 0 4.3 2.0 -1 5
+ 0.147472 2 0 cbr 536 ------- 1 4.1 1073741824.0 2 4
- 0.147472 2 0 cbr 536 ------- 1 4.1 1073741824.0 2 4
+ 0.147472 2 5 cbr 536 ------- 1 4.1 1073741824.0 2 4
- 0.147472 2 5 cbr 536 ------- 1 4.1 1073741824.0 2 4
+ 0.151456 4 1 encap 556 ------- 0 4.3 2.0 -1 25
- 0.151456 4 1 encap 556 ------- 0 4.3 2.0 -1 25
r 0.151557 4 1 encap 556 ------- 0 4.3 2.0 -1 19
+ 0.151557 1 0 encap 556 ------- 0 4.3 2.0 -1 19
- 0.151557 1 0 encap 556 ------- 0 4.3 2.0 -1 19
r 0.151659 1 0 encap 556 ------- 0 4.3 2.0 -1 13
+ 0.151659 0 2 encap 556 ------- 0 4.3 2.0 -1 13
- 0.151659 0 2 encap 556 ------- 0 4.3 2.0 -1 13
r 0.151755 2 0 cbr 536 ------- 1 4.1 1073741824.0 0 0
+ 0.151755 0 1 cbr 536 ------- 1 4.1 1073741824.0 0 0
- 0.151755 0 1 cbr 536 ------- 1 4.1 1073741824.0 0 0
r 0.151755 2 5 cbr 536 ------- 1 4.1 1073741824.0 0 0
r 0.15176 0 2 encap 556 ------- 0 4.3 2.0 -1 7
+ 0.15176 2 0 cbr 536 ------- 1 4.1 1073741824.0 3 6
- 0.15176 2 0 cbr 536 ------- 1 4.1 1073741824.0 3 6
+ 0.15176 2 5 cbr 536 ------- 1 4.1 1073741824.0 3 6
- 0.15176 2 5 cbr 536 ------- 1 4.1 1073741824.0 3 6
+ 0.155744 4 1 encap 556 ------- 0 4.3 2.0 -1 27
- 0.155744 4 1 encap 556 ------- 0 4.3 2.0 -1 27
r 0.155845 4 1 encap 556 ------- 0 4.3 2.0 -1 21
+ 0.155845 1 0 encap 556 ------- 0 4.3 2.0 -1 21
- 0.155845 1 0 encap 556 ------- 0 4.3 2.0 -1 21
r 0.155947 1 0 encap 556 ------- 0 4.3 2.0 -1 15
+ 0.155947 0 2 encap 556 ------- 0 4.3 2.0 -1 15
- 0.155947 0 2 encap 556 ------- 0 4.3 2.0 -1 15
r 0.156043 2 0 cbr 536 ------- 1 4.1 1073741824.0 1 2
+ 0.156043 0 1 cbr 536 ------- 1 4.1 1073741824.0 1 2
- 0.156043 0 1 cbr 536 ------- 1 4.1 1073741824.0 1 2
r 0.156043 2 5 cbr 536 ------- 1 4.1 1073741824.0 1 2
r 0.156048 0 2 encap 556 ------- 0 4.3 2.0 -1 9
+ 0.156048 2 0 cbr 536 ------- 1 4.1 1073741824.0 4 8
- 0.156048 2 0 cbr 536 ------- 1 4.1 1073741824.0 4 8
+ 0.156048 2 5 cbr 536 ------- 1 4.1 1073741824.0 4 8
- 0.156048 2 5 cbr 536 ------- 1 4.1 1073741824.0 4 8
+ 0.160032 4 1 encap 556 ------- 0 4.3 2.0 -1 29
- 0.160032 4 1 encap 556 ------- 0 4.3 2.0 -1 29
r 0.160133 4 1 encap 556 ------- 0 4.3 2.0 -1 23
+ 0.160133 1 0 encap 556 ------- 0 4.3 2.0 -1 23
- 0.160133 1 0 encap 556 ------- 0 4.3 2.0 -1 23
r 0.160235 1 0 encap 556 ------- 0 4.3 2.0 -1 17
+ 0.160235 0 2 encap 556 ------- 0 4.3 2.0 -1 17
- 0.160235 0 2 encap 556 ------- 0 4.3 2.0 -1 17
r 0.160331 2 0 cbr 536 ------- 1 4.1 1073741824.0 2 4
+ 0.160331 0 1 cbr 536 ------- 1 4.1 1073741824.0 2 4
- 0.160331 0 1 cbr 536 ------- 1 4.1 1073741824.0 2 4
r 0.160331 2 5 cbr 536 ------- 1 4.1 1073741824.0 2 4
r 0.160336 0 2 encap 556 ------- 0 4.3 2.0 -1 11
+ 0.160336 2 0 cbr 536 ------- 1 4.1 1073741824.0 5 10
- 0.160336 2 0 cbr 536 ------- 1 4.1 1073741824.0 5 10
+ 0.160336 2 5 cbr 536 ------- 1 4.1 1073741824.0 5 10
- 0.160336 2 5 cbr 536 ------- 1 4.1 1073741824.0 5 10
+ 0.16432 4 1 encap 556 ------- 0 4.3 2.0 -1 31
- 0.16432 4 1 encap 556 ------- 0 4.3 2.0 -1 31
r 0.164421 4 1 encap 556 ------- 0 4.3 2.0 -1 25
+ 0.164421 1 0 encap 556 ------- 0 4.3 2.0 -1 25
- 0.164421 1 0 encap 556 ------- 0 4.3 2.0 -1 25
r 0.164523 1 0 encap 556 ------- 0 4.3 2.0 -1 19
+ 0.164523 0 2 encap 556 ------- 0 4.3 2.0 -1 19
- 0.164523 0 2 encap 556 ------- 0 4.3 2.0 -1 19
r 0.164613 0 1 cbr 536 ------- 1 4.1 1073741824.0 0 0
+ 0.164613 1 3 cbr 536 ------- 1 4.1 1073741824.0 0 0
- 0.164613 1 3 cbr 536 ------- 1 4.1 1073741824.0 0 0
+ 0.164613 1 4 cbr 536 ------- 1 4.1 1073741824.0 0 0
- 0.164613 1 4 cbr 536 ------- 1 4.1 1073741824.0 0 0
r 0.164619 2 0 cbr 536 ------- 1 4.1 1073741824.0 3 6
+ 0.164619 0 1 cbr 536 ------- 1 4.1 1073741824.0 3 6
- 0.164619 0 1 cbr 536 ------- 1 4.1 1073741824.0 3 6
r 0.164619 2 5 cbr 536 ------- 1 4.1 1073741824.0 3 6
r 0.164624 0 2 encap 556 ------- 0 4.3 2.0 -1 13
+ 0.164624 2 0 cbr 536 ------- 1 4.1 1073741824.0 6 12
- 0.164624 2 0 cbr 536 ------- 1 4.1 1073741824.0 6 12
+ 0.164624 2 5 cbr 536 ------- 1 4.1 1073741824.0 6 12
- 0.164624 2 5 cbr 536 ------- 1 4.1 1073741824.0 6 12
+ 0.168608 4 1 encap 556 ------- 0 4.3 2.0 -1 33
- 0.168608 4 1 encap 556 ------- 0 4.3 2.0 -1 33
r 0.168709 4 1 encap 556 ------- 0 4.3 2.0 -1 27
+ 0.168709 1 0 encap 556 ------- 0 4.3 2.0 -1 27
- 0.168709 1 0 encap 556 ------- 0 4.3 2.0 -1 27
r 0.168811 1 0 encap 556 ------- 0 4.3 2.0 -1 21
+ 0.168811 0 2 encap 556 ------- 0 4.3 2.0 -1 21
- 0.168811 0 2 encap 556 ------- 0 4.3 2.0 -1 21
r 0.168901 0 1 cbr 536 ------- 1 4.1 1073741824.0 1 2
+ 0.168901 1 3 cbr 536 ------- 1 4.1 1073741824.0 1 2
- 0.168901 1 3 cbr 536 ------- 1 4.1 1073741824.0 1 2
+ 0.168901 1 4 cbr 536 ------- 1 4.1 1073741824.0 1 2
- 0.168901 1 4 cbr 536 ------- 1 4.1 1073741824.0 1 2
r 0.168907 2 0 cbr 536 ------- 1 4.1 1073741824.0 4 8
+ 0.168907 0 1 cbr 536 ------- 1 4.1 1073741824.0 4 8
- 0.168907 0 1 cbr 536 ------- 1 4.1 1073741824.0 4 8
r 0.168907 2 5 cbr 536 ------- 1 4.1 1073741824.0 4 8
r 0.168912 0 2 encap 556 ------- 0 4.3 2.0 -1 15
+ 0.168912 2 0 cbr 536 ------- 1 4.1 1073741824.0 7 14
- 0.168912 2 0 cbr 536 ------- 1 4.1 1073741824.0 7 14
+ 0.168912 2 5 cbr 536 ------- 1 4.1 1073741824.0 7 14
- 0.168912 2 5 cbr 536 ------- 1 4.1 1073741824.0 7 14
+ 0.172896 4 1 encap 556 ------- 0 4.3 2.0 -1 35
- 0.172896 4 1 encap 556 ------- 0 4.3 2.0 -1 35
r 0.172997 4 1 encap 556 ------- 0 4.3 2.0 -1 29
+ 0.172997 1 0 encap 556 ------- 0 4.3 2.0 -1 29
- 0.172997 1 0 encap 556 ------- 0 4.3 2.0 -1 29
r 0.173099 1 0 encap 556 ------- 0 4.3 2.0 -1 23
+ 0.173099 0 2 encap 556 ------- 0 4.3 2.0 -1 23
- 0.173099 0 2 encap 556 ------- 0 4.3 2.0 -1 23
r 0.173189 0 1 cbr 536 ------- 1 4.1 1073741824.0 2 4
+ 0.173189 1 3 cbr 536 ------- 1 4.1 1073741824.0 2 4
- 0.173189 1 3 cbr 536 ------- 1 4.1 1073741824.0 2 4
+ 0.173189 1 4 cbr 536 ------- 1 4.1 1073741824.0 2 4
- 0.173189 1 4 cbr 536 ------- 1 4.1 1073741824.0 2 4
r 0.173195 2 0 cbr 536 ------- 1 4.1 1073741824.0 5 10
+ 0.173195 0 1 cbr 536 ------- 1 4.1 1073741824.0 5 10
- 0.173195 0 1 cbr 536 ------- 1 4.1 1073741824.0 5 10
r 0.173195 2 5 cbr 536 ------- 1 4.1 1073741824.0 5 10
r 0.1732 0 2 encap 556 ------- 0 4.3 2.0 -1 17
+ 0.1732 2 0 cbr 536 ------- 1 4.1 1073741824.0 8 16
- 0.1732 2 0 cbr 536 ------- 1 4.1 1073741824.0 8 16
+ 0.1732 2 5 cbr 536 ------- 1 4.1 1073741824.0 8 16
- 0.1732 2 5 cbr 536 ------- 1 4.1 1073741824.0 8 16
+ 0.177184 4 1 encap 556 ------- 0 4.3 2.0 -1 37
- 0.177184 4 1 encap 556 ------- 0 4.3 2.0 -1 37
r 0.177285 4 1 encap 556 ------- 0 4.3 2.0 -1 31
+ 0.177285 1 0 encap 556 ------- 0 4.3 2.0 -1 31
- 0.177285 1 0 encap 556 ------- 0 4.3 2.0 -1 31
r 0.177387 1 0 encap 556 ------- 0 4.3 2.0 -1 25
+ 0.177387 0 2 encap 556 ------- 0 4.3 2.0 -1 25
- 0.177387 0 2 encap 556 ------- 0 4.3 2.0 -1 25
r 0.177472 1 3 cbr 536 ------- 1 4.1 1073741824.0 0 0
r 0.177472 1 4 cbr 536 ------- 1 4.1 1073741824.0 0 0
r 0.177477 0 1 cbr 536 ------- 1 4.1 1073741824.0 3 6
+ 0.177477 1 3 cbr 536 ------- 1 4.1 1073741824.0 3 6
- 0.177477 1 3 cbr 536 ------- 1 4.1 1073741824.0 3 6
+ 0.177477 1 4 cbr 536 ------- 1 4.1 1073741824.0 3 6
- 0.177477 1 4 cbr 536 ------- 1 4.1 1073741824.0 3 6
r 0.177483 2 0 cbr 536 ------- 1 4.1 1073741824.0 6 12
+ 0.177483 0 1 cbr 536 ------- 1 4.1 1073741824.0 6 12
- 0.177483 0 1 cbr 536 ------- 1 4.1 1073741824.0 6 12
r 0.177483 2 5 cbr 536 ------- 1 4.1 1073741824.0 6 12
r 0.177488 0 2 encap 556 ------- 0 4.3 2.0 -1 19
+ 0.177488 2 0 cbr 536 ------- 1 4.1 1073741824.0 9 18
- 0.177488 2 0 cbr 536 ------- 1 4.1 1073741824.0 9 18
+ 0.177488 2 5 cbr 536 ------- 1 4.1 1073741824.0 9 18
- 0.177488 2 5 cbr 536 ------- 1 4.1 1073741824.0 9 18
+ 0.181472 4 1 encap 556 ------- 0 4.3 2.0 -1 39
- 0.181472 4 1 encap 556 ------- 0 4.3 2.0 -1 39
r 0.181573 4 1 encap 556 ------- 0 4.3 2.0 -1 33
+ 0.181573 1 0 encap 556 ------- 0 4.3 2.0 -1 33
- 0.181573 1 0 encap 556 ------- 0 4.3 2.0 -1 33
r 0.181675 1 0 encap 556 ------- 0 4.3 2.0 -1 27
+ 0.181675 0 2 encap 556 ------- 0 4.3 2.0 -1 27
- 0.181675 0 2 encap 556 ------- 0 4.3 2.0 -1 27
r 0.18176 1 3 cbr 536 ------- 1 4.1 1073741824.0 1 2
r 0.18176 1 4 cbr 536 ------- 1 4.1 1073741824.0 1 2
r 0.181765 0 1 cbr 536 ------- 1 4.1 1073741824.0 4 8
+ 0.181765 1 3 cbr 536 ------- 1 4.1 1073741824.0 4 8
- 0.181765 1 3 cbr 536 ------- 1 4.1 1073741824.0 4 8
+ 0.181765 1 4 cbr 536 ------- 1 4.1 1073741824.0 4 8
- 0.181765 1 4 cbr 536 ------- 1 4.1 1073741824.0 4 8
r 0.181771 2 0 cbr 536 ------- 1 4.1 1073741824.0 7 14
+ 0.181771 0 1 cbr 536 ------- 1 4.1 1073741824.0 7 14
- 0.181771 0 1 cbr 536 ------- 1 4.1 1073741824.0 7 14
r 0.181771 2 5 cbr 536 ------- 1 4.1 1073741824.0 7 14
r 0.181776 0 2 encap 556 ------- 0 4.3 2.0 -1 21
+ 0.181776 2 0 cbr 536 ------- 1 4.1 1073741824.0 10 20
- 0.181776 2 0 cbr 536 ------- 1 4.1 1073741824.0 10 20
+ 0.181776 2 5 cbr 536 ------- 1 4.1 1073741824.0 10 20
- 0.181776 2 5 cbr 536 ------- 1 4.1 1073741824.0 10 20
+ 0.18576 4 1 encap 556 ------- 0 4.3 2.0 -1 41
- 0.18576 4 1 encap 556 ------- 0 4.3 2.0 -1 41
r 0.185861 4 1 encap 556 ------- 0 4.3 2.0 -1 35
+ 0.185861 1 0 encap 556 ------- 0 4.3 2.0 -1 35
- 0.185861 1 0 encap 556 ------- 0 4.3 2.0 -1 35
r 0.185963 1 0 encap 556 ------- 0 4.3 2.0 -1 29
+ 0.185963 0 2 encap 556 ------- 0 4.3 2.0 -1 29
- 0.185963 0 2 encap 556 ------- 0 4.3 2.0 -1 29
r 0.186048 1 3 cbr 536 ------- 1 4.1 1073741824.0 2 4
r 0.186048 1 4 cbr 536 ------- 1 4.1 1073741824.0 2 4
r 0.186053 0 1 cbr 536 ------- 1 4.1 1073741824.0 5 10
+ 0.186053 1 3 cbr 536 ------- 1 4.1 1073741824.0 5 10
- 0.186053 1 3 cbr 536 ------- 1 4.1 1073741824.0 5 10
+ 0.186053 1 4 cbr 536 ------- 1 4.1 1073741824.0 5 10
- 0.186053 1 4 cbr 536 ------- 1 4.1 1073741824.0 5 10
r 0.186059 2 0 cbr 536 ------- 1 4.1 1073741824.0 8 16
+ 0.186059 0 1 cbr 536 ------- 1 4.1 1073741824.0 8 16
- 0.186059 0 1 cbr 536 ------- 1 4.1 1073741824.0 8 16
r 0.186059 2 5 cbr 536 ------- 1 4.1 1073741824.0 8 16
r 0.186064 0 2 encap 556 ------- 0 4.3 2.0 -1 23
+ 0.186064 2 0 cbr 536 ------- 1 4.1 1073741824.0 11 22
- 0.186064 2 0 cbr 536 ------- 1 4.1 1073741824.0 11 22
+ 0.186064 2 5 cbr 536 ------- 1 4.1 1073741824.0 11 22
- 0.186064 2 5 cbr 536 ------- 1 4.1 1073741824.0 11 22
+ 0.190048 4 1 encap 556 ------- 0 4.3 2.0 -1 43
- 0.190048 4 1 encap 556 ------- 0 4.3 2.0 -1 43
r 0.190149 4 1 encap 556 ------- 0 4.3 2.0 -1 37
+ 0.190149 1 0 encap 556 ------- 0 4.3 2.0 -1 37
- 0.190149 1 0 encap 556 ------- 0 4.3 2.0 -1 37
r 0.190251 1 0 encap 556 ------- 0 4.3 2.0 -1 31
+ 0.190251 0 2 encap 556 ------- 0 4.3 2.0 -1 31
- 0.190251 0 2 encap 556 ------- 0 4.3 2.0 -1 31
r 0.190336 1 3 cbr 536 ------- 1 4.1 1073741824.0 3 6
r 0.190336 1 4 cbr 536 ------- 1 4.1 1073741824.0 3 6
r 0.190341 0 1 cbr 536 ------- 1 4.1 1073741824.0 6 12
+ 0.190341 1 3 cbr 536 ------- 1 4.1 1073741824.0 6 12
- 0.190341 1 3 cbr 536 ------- 1 4.1 1073741824.0 6 12
+ 0.190341 1 4 cbr 536 ------- 1 4.1 1073741824.0 6 12
- 0.190341 1 4 cbr 536 ------- 1 4.1 1073741824.0 6 12
r 0.190347 2 0 cbr 536 ------- 1 4.1 1073741824.0 9 18
+ 0.190347 0 1 cbr 536 ------- 1 4.1 1073741824.0 9 18
- 0.190347 0 1 cbr 536 ------- 1 4.1 1073741824.0 9 18
r 0.190347 2 5 cbr 536 ------- 1 4.1 1073741824.0 9 18
r 0.190352 0 2 encap 556 ------- 0 4.3 2.0 -1 25
+ 0.190352 2 0 cbr 536 ------- 1 4.1 1073741824.0 12 24
- 0.190352 2 0 cbr 536 ------- 1 4.1 1073741824.0 12 24
+ 0.190352 2 5 cbr 536 ------- 1 4.1 1073741824.0 12 24
- 0.190352 2 5 cbr 536 ------- 1 4.1 1073741824.0 12 24
+ 0.194336 4 1 encap 556 ------- 0 4.3 2.0 -1 45
- 0.194336 4 1 encap 556 ------- 0 4.3 2.0 -1 45
r 0.194437 4 1 encap 556 ------- 0 4.3 2.0 -1 39
+ 0.194437 1 0 encap 556 ------- 0 4.3 2.0 -1 39
- 0.194437 1 0 encap 556 ------- 0 4.3 2.0 -1 39
r 0.194539 1 0 encap 556 ------- 0 4.3 2.0 -1 33
+ 0.194539 0 2 encap 556 ------- 0 4.3 2.0 -1 33
- 0.194539 0 2 encap 556 ------- 0 4.3 2.0 -1 33
r 0.194624 1 3 cbr 536 ------- 1 4.1 1073741824.0 4 8
r 0.194624 1 4 cbr 536 ------- 1 4.1 1073741824.0 4 8
r 0.194629 0 1 cbr 536 ------- 1 4.1 1073741824.0 7 14
+ 0.194629 1 3 cbr 536 ------- 1 4.1 1073741824.0 7 14
- 0.194629 1 3 cbr 536 ------- 1 4.1 1073741824.0 7 14
+ 0.194629 1 4 cbr 536 ------- 1 4.1 1073741824.0 7 14
- 0.194629 1 4 cbr 536 ------- 1 4.1 1073741824.0 7 14
r 0.194635 2 0 cbr 536 ------- 1 4.1 1073741824.0 10 20
+ 0.194635 0 1 cbr 536 ------- 1 4.1 1073741824.0 10 20
- 0.194635 0 1 cbr 536 ------- 1 4.1 1073741824.0 10 20
r 0.194635 2 5 cbr 536 ------- 1 4.1 1073741824.0 10 20
r 0.19464 0 2 encap 556 ------- 0 4.3 2.0 -1 27
+ 0.19464 2 0 cbr 536 ------- 1 4.1 1073741824.0 13 26
- 0.19464 2 0 cbr 536 ------- 1 4.1 1073741824.0 13 26
+ 0.19464 2 5 cbr 536 ------- 1 4.1 1073741824.0 13 26
- 0.19464 2 5 cbr 536 ------- 1 4.1 1073741824.0 13 26
+ 0.198624 4 1 encap 556 ------- 0 4.3 2.0 -1 47
- 0.198624 4 1 encap 556 ------- 0 4.3 2.0 -1 47
r 0.198725 4 1 encap 556 ------- 0 4.3 2.0 -1 41
+ 0.198725 1 0 encap 556 ------- 0 4.3 2.0 -1 41
- 0.198725 1 0 encap 556 ------- 0 4.3 2.0 -1 41
r 0.198827 1 0 encap 556 ------- 0 4.3 2.0 -1 35
+ 0.198827 0 2 encap 556 ------- 0 4.3 2.0 -1 35
- 0.198827 0 2 encap 556 ------- 0 4.3 2.0 -1 35
r 0.198912 1 3 cbr 536 ------- 1 4.1 1073741824.0 5 10
r 0.198912 1 4 cbr 536 ------- 1 4.1 1073741824.0 5 10
r 0.198917 0 1 cbr 536 ------- 1 4.1 1073741824.0 8 16
+ 0.198917 1 3 cbr 536 ------- 1 4.1 1073741824.0 8 16
- 0.198917 1 3 cbr 536 ------- 1 4.1 1073741824.0 8 16
+ 0.198917 1 4 cbr 536 ------- 1 4.1 1073741824.0 8 16
- 0.198917 1 4 cbr 536 ------- 1 4.1 1073741824.0 8 16
r 0.198923 2 0 cbr 536 ------- 1 4.1 1073741824.0 11 22
+ 0.198923 0 1 cbr 536 ------- 1 4.1 1073741824.0 11 22
- 0.198923 0 1 cbr 536 ------- 1 4.1 1073741824.0 11 22
r 0.198923 2 5 cbr 536 ------- 1 4.1 1073741824.0 11 22
r 0.198928 0 2 encap 556 ------- 0 4.3 2.0 -1 29
+ 0.198928 2 0 cbr 536 ------- 1 4.1 1073741824.0 14 28
- 0.198928 2 0 cbr 536 ------- 1 4.1 1073741824.0 14 28
+ 0.198928 2 5 cbr 536 ------- 1 4.1 1073741824.0 14 28
- 0.198928 2 5 cbr 536 ------- 1 4.1 1073741824.0 14 28
+ 0.202912 4 1 encap 556 ------- 0 4.3 2.0 -1 49
- 0.202912 4 1 encap 556 ------- 0 4.3 2.0 -1 49
r 0.203013 4 1 encap 556 ------- 0 4.3 2.0 -1 43
+ 0.203013 1 0 encap 556 ------- 0 4.3 2.0 -1 43
- 0.203013 1 0 encap 556 ------- 0 4.3 2.0 -1 43
r 0.203115 1 0 encap 556 ------- 0 4.3 2.0 -1 37
+ 0.203115 0 2 encap 556 ------- 0 4.3 2.0 -1 37
- 0.203115 0 2 encap 556 ------- 0 4.3 2.0 -1 37
r 0.2032 1 3 cbr 536 ------- 1 4.1 1073741824.0 6 12
r 0.2032 1 4 cbr 536 ------- 1 4.1 1073741824.0 6 12
r 0.203205 0 1 cbr 536 ------- 1 4.1 1073741824.0 9 18
+ 0.203205 1 3 cbr 536 ------- 1 4.1 1073741824.0 9 18
- 0.203205 1 3 cbr 536 ------- 1 4.1 1073741824.0 9 18
+ 0.203205 1 4 cbr 536 ------- 1 4.1 1073741824.0 9 18
- 0.203205 1 4 cbr 536 ------- 1 4.1 1073741824.0 9 18
r 0.203211 2 0 cbr 536 ------- 1 4.1 1073741824.0 12 24
+ 0.203211 0 1 cbr 536 ------- 1 4.1 1073741824.0 12 24
- 0.203211 0 1 cbr 536 ------- 1 4.1 1073741824.0 12 24
r 0.203211 2 5 cbr 536 ------- 1 4.1 1073741824.0 12 24
r 0.203216 0 2 encap 556 ------- 0 4.3 2.0 -1 31
+ 0.203216 2 0 cbr 536 ------- 1 4.1 1073741824.0 15 30
- 0.203216 2 0 cbr 536 ------- 1 4.1 1073741824.0 15 30
+ 0.203216 2 5 cbr 536 ------- 1 4.1 1073741824.0 15 30
- 0.203216 2 5 cbr 536 ------- 1 4.1 1073741824.0 15 30
+ 0.2072 4 1 encap 556 ------- 0 4.3 2.0 -1 51
- 0.2072 4 1 encap 556 ------- 0 4.3 2.0 -1 51
r 0.207301 4 1 encap 556 ------- 0 4.3 2.0 -1 45
+ 0.207301 1 0 encap 556 ------- 0 4.3 2.0 -1 45
- 0.207301 1 0 encap 556 ------- 0 4.3 2.0 -1 45
r 0.207403 1 0 encap 556 ------- 0 4.3 2.0 -1 39
+ 0.207403 0 2 encap 556 ------- 0 4.3 2.0 -1 39
- 0.207403 0 2 encap 556 ------- 0 4.3 2.0 -1 39
r 0.207488 1 3 cbr 536 ------- 1 4.1 1073741824.0 7 14
r 0.207488 1 4 cbr 536 ------- 1 4.1 1073741824.0 7 14
r 0.207493 0 1 cbr 536 ------- 1 4.1 1073741824.0 10 20
+ 0.207493 1 3 cbr 536 ------- 1 4.1 1073741824.0 10 20
- 0.207493 1 3 cbr 536 ------- 1 4.1 1073741824.0 10 20
+ 0.207493 1 4 cbr 536 ------- 1 4.1 1073741824.0 10 20
- 0.207493 1 4 cbr 536 ------- 1 4.1 1073741824.0 10 20
r 0.207499 2 0 cbr 536 ------- 1 4.1 1073741824.0 13 26
+ 0.207499 0 1 cbr 536 ------- 1 4.1 1073741824.0 13 26
- 0.207499 0 1 cbr 536 ------- 1 4.1 1073741824.0 13 26
r 0.207499 2 5 cbr 536 ------- 1 4.1 1073741824.0 13 26
r 0.207504 0 2 encap 556 ------- 0 4.3 2.0 -1 33
+ 0.207504 2 0 cbr 536 ------- 1 4.1 1073741824.0 16 32
- 0.207504 2 0 cbr 536 ------- 1 4.1 1073741824.0 16 32
+ 0.207504 2 5 cbr 536 ------- 1 4.1 1073741824.0 16 32
- 0.207504 2 5 cbr 536 ------- 1 4.1 1073741824.0 16 32
+ 0.211488 4 1 encap 556 ------- 0 4.3 2.0 -1 53
- 0.211488 4 1 encap 556 ------- 0 4.3 2.0 -1 53
r 0.211589 4 1 encap 556 ------- 0 4.3 2.0 -1 47
+ 0.211589 1 0 encap 556 ------- 0 4.3 2.0 -1 47
- 0.211589 1 0 encap 556 ------- 0 4.3 2.0 -1 47
r 0.211691 1 0 encap 556 ------- 0 4.3 2.0 -1 41
+ 0.211691 0 2 encap 556 ------- 0 4.3 2.0 -1 41
- 0.211691 0 2 encap 556 ------- 0 4.3 2.0 -1 41
r 0.211776 1 3 cbr 536 ------- 1 4.1 1073741824.0 8 16
r 0.211776 1 4 cbr 536 ------- 1 4.1 1073741824.0 8 16
r 0.211781 0 1 cbr 536 ------- 1 4.1 1073741824.0 11 22
+ 0.211781 1 3 cbr 536 ------- 1 4.1 1073741824.0 11 22
- 0.211781 1 3 cbr 536 ------- 1 4.1 1073741824.0 11 22
+ 0.211781 1 4 cbr 536 ------- 1 4.1 1073741824.0 11 22
- 0.211781 1 4 cbr 536 ------- 1 4.1 1073741824.0 11 22
r 0.211787 2 0 cbr 536 ------- 1 4.1 1073741824.0 14 28
+ 0.211787 0 1 cbr 536 ------- 1 4.1 1073741824.0 14 28
- 0.211787 0 1 cbr 536 ------- 1 4.1 1073741824.0 14 28
r 0.211787 2 5 cbr 536 ------- 1 4.1 1073741824.0 14 28
r 0.211792 0 2 encap 556 ------- 0 4.3 2.0 -1 35
+ 0.211792 2 0 cbr 536 ------- 1 4.1 1073741824.0 17 34
- 0.211792 2 0 cbr 536 ------- 1 4.1 1073741824.0 17 34
+ 0.211792 2 5 cbr 536 ------- 1 4.1 1073741824.0 17 34
- 0.211792 2 5 cbr 536 ------- 1 4.1 1073741824.0 17 34
+ 0.215776 4 1 encap 556 ------- 0 4.3 2.0 -1 55
- 0.215776 4 1 encap 556 ------- 0 4.3 2.0 -1 55
r 0.215877 4 1 encap 556 ------- 0 4.3 2.0 -1 49
+ 0.215877 1 0 encap 556 ------- 0 4.3 2.0 -1 49
- 0.215877 1 0 encap 556 ------- 0 4.3 2.0 -1 49
r 0.215979 1 0 encap 556 ------- 0 4.3 2.0 -1 43
+ 0.215979 0 2 encap 556 ------- 0 4.3 2.0 -1 43
- 0.215979 0 2 encap 556 ------- 0 4.3 2.0 -1 43
r 0.216064 1 3 cbr 536 ------- 1 4.1 1073741824.0 9 18
r 0.216064 1 4 cbr 536 ------- 1 4.1 1073741824.0 9 18
r 0.216069 0 1 cbr 536 ------- 1 4.1 1073741824.0 12 24
+ 0.216069 1 3 cbr 536 ------- 1 4.1 1073741824.0 12 24
- 0.216069 1 3 cbr 536 ------- 1 4.1 1073741824.0 12 24
+ 0.216069 1 4 cbr 536 ------- 1 4.1 1073741824.0 12 24
- 0.216069 1 4 cbr 536 ------- 1 4.1 1073741824.0 12 24
r 0.216075 2 0 cbr 536 ------- 1 4.1 1073741824.0 15 30
+ 0.216075 0 1 cbr 536 ------- 1 4.1 1073741824.0 15 30
- 0.216075 0 1 cbr 536 ------- 1 4.1 1073741824.0 15 30
r 0.216075 2 5 cbr 536 ------- 1 4.1 1073741824.0 15 30
r 0.21608 0 2 encap 556 ------- 0 4.3 2.0 -1 37
+ 0.21608 2 0 cbr 536 ------- 1 4.1 1073741824.0 18 36
- 0.21608 2 0 cbr 536 ------- 1 4.1 1073741824.0 18 36
+ 0.21608 2 5 cbr 536 ------- 1 4.1 1073741824.0 18 36
- 0.21608 2 5 cbr 536 ------- 1 4.1 1073741824.0 18 36
+ 0.220064 4 1 encap 556 ------- 0 4.3 2.0 -1 57
- 0.220064 4 1 encap 556 ------- 0 4.3 2.0 -1 57
r 0.220165 4 1 encap 556 ------- 0 4.3 2.0 -1 51
+ 0.220165 1 0 encap 556 ------- 0 4.3 2.0 -1 51
- 0.220165 1 0 encap 556 ------- 0 4.3 2.0 -1 51
r 0.220267 1 0 encap 556 ------- 0 4.3 2.0 -1 45
+ 0.220267 0 2 encap 556 ------- 0 4.3 2.0 -1 45
- 0.220267 0 2 encap 556 ------- 0 4.3 2.0 -1 45
r 0.220352 1 3 cbr 536 ------- 1 4.1 1073741824.0 10 20
r 0.220352 1 4 cbr 536 ------- 1 4.1 1073741824.0 10 20
r 0.220357 0 1 cbr 536 ------- 1 4.1 1073741824.0 13 26
+ 0.220357 1 3 cbr 536 ------- 1 4.1 1073741824.0 13 26
- 0.220357 1 3 cbr 536 ------- 1 4.1 1073741824.0 13 26
+ 0.220357 1 4 cbr 536 ------- 1 4.1 1073741824.0 13 26
- 0.220357 1 4 cbr 536 ------- 1 4.1 1073741824.0 13 26
r 0.220363 2 0 cbr 536 ------- 1 4.1 1073741824.0 16 32
+ 0.220363 0 1 cbr 536 ------- 1 4.1 1073741824.0 16 32
- 0.220363 0 1 cbr 536 ------- 1 4.1 1073741824.0 16 32
r 0.220363 2 5 cbr 536 ------- 1 4.1 1073741824.0 16 32
r 0.220368 0 2 encap 556 ------- 0 4.3 2.0 -1 39
+ 0.220368 2 0 cbr 536 ------- 1 4.1 1073741824.0 19 38
- 0.220368 2 0 cbr 536 ------- 1 4.1 1073741824.0 19 38
+ 0.220368 2 5 cbr 536 ------- 1 4.1 1073741824.0 19 38
- 0.220368 2 5 cbr 536 ------- 1 4.1 1073741824.0 19 38
+ 0.224352 4 1 encap 556 ------- 0 4.3 2.0 -1 59
- 0.224352 4 1 encap 556 ------- 0 4.3 2.0 -1 59
r 0.224453 4 1 encap 556 ------- 0 4.3 2.0 -1 53
+ 0.224453 1 0 encap 556 ------- 0 4.3 2.0 -1 53
- 0.224453 1 0 encap 556 ------- 0 4.3 2.0 -1 53
r 0.224555 1 0 encap 556 ------- 0 4.3 2.0 -1 47
+ 0.224555 0 2 encap 556 ------- 0 4.3 2.0 -1 47
- 0.224555 0 2 encap 556 ------- 0 4.3 2.0 -1 47
r 0.22464 1 3 cbr 536 ------- 1 4.1 1073741824.0 11 22
r 0.22464 1 4 cbr 536 ------- 1 4.1 1073741824.0 11 22
r 0.224645 0 1 cbr 536 ------- 1 4.1 1073741824.0 14 28
+ 0.224645 1 3 cbr 536 ------- 1 4.1 1073741824.0 14 28
- 0.224645 1 3 cbr 536 ------- 1 4.1 1073741824.0 14 28
+ 0.224645 1 4 cbr 536 ------- 1 4.1 1073741824.0 14 28
- 0.224645 1 4 cbr 536 ------- 1 4.1 1073741824.0 14 28
r 0.224651 2 0 cbr 536 ------- 1 4.1 1073741824.0 17 34
+ 0.224651 0 1 cbr 536 ------- 1 4.1 1073741824.0 17 34
- 0.224651 0 1 cbr 536 ------- 1 4.1 1073741824.0 17 34
r 0.224651 2 5 cbr 536 ------- 1 4.1 1073741824.0 17 34
r 0.224656 0 2 encap 556 ------- 0 4.3 2.0 -1 41
+ 0.224656 2 0 cbr 536 ------- 1 4.1 1073741824.0 20 40
- 0.224656 2 0 cbr 536 ------- 1 4.1 1073741824.0 20 40
+ 0.224656 2 5 cbr 536 ------- 1 4.1 1073741824.0 20 40
- 0.224656 2 5 cbr 536 ------- 1 4.1 1073741824.0 20 40
+ 0.22864 4 1 encap 556 ------- 0 4.3 2.0 -1 61
- 0.22864 4 1 encap 556 ------- 0 4.3 2.0 -1 61
r 0.228741 4 1 encap 556 ------- 0 4.3 2.0 -1 55
+ 0.228741 1 0 encap 556 ------- 0 4.3 2.0 -1 55
- 0.228741 1 0 encap 556 ------- 0 4.3 2.0 -1 55
r 0.228843 1 0 encap 556 ------- 0 4.3 2.0 -1 49
+ 0.228843 0 2 encap 556 ------- 0 4.3 2.0 -1 49
- 0.228843 0 2 encap 556 ------- 0 4.3 2.0 -1 49
r 0.228928 1 3 cbr 536 ------- 1 4.1 1073741824.0 12 24
r 0.228928 1 4 cbr 536 ------- 1 4.1 1073741824.0 12 24
r 0.228933 0 1 cbr 536 ------- 1 4.1 1073741824.0 15 30
+ 0.228933 1 3 cbr 536 ------- 1 4.1 1073741824.0 15 30
- 0.228933 1 3 cbr 536 ------- 1 4.1 1073741824.0 15 30
+ 0.228933 1 4 cbr 536 ------- 1 4.1 1073741824.0 15 30
- 0.228933 1 4 cbr 536 ------- 1 4.1 1073741824.0 15 30
r 0.228939 2 0 cbr 536 ------- 1 4.1 1073741824.0 18 36
+ 0.228939 0 1 cbr 536 ------- 1 4.1 1073741824.0 18 36
- 0.228939 0 1 cbr 536 ------- 1 4.1 1073741824.0 18 36
r 0.228939 2 5 cbr 536 ------- 1 4.1 1073741824.0 18 36
r 0.228944 0 2 encap 556 ------- 0 4.3 2.0 -1 43
+ 0.228944 2 0 cbr 536 ------- 1 4.1 1073741824.0 21 42
- 0.228944 2 0 cbr 536 ------- 1 4.1 1073741824.0 21 42
+ 0.228944 2 5 cbr 536 ------- 1 4.1 1073741824.0 21 42
- 0.228944 2 5 cbr 536 ------- 1 4.1 1073741824.0 21 42
+ 0.232928 4 1 encap 556 ------- 0 4.3 2.0 -1 63
- 0.232928 4 1 encap 556 ------- 0 4.3 2.0 -1 63
r 0.233029 4 1 encap 556 ------- 0 4.3 2.0 -1 57
+ 0.233029 1 0 encap 556 ------- 0 4.3 2.0 -1 57
- 0.233029 1 0 encap 556 ------- 0 4.3 2.0 -1 57
r 0.233131 1 0 encap 556 ------- 0 4.3 2.0 -1 51
+ 0.233131 0 2 encap 556 ------- 0 4.3 2.0 -1 51
- 0.233131 0 2 encap 556 ------- 0 4.3 2.0 -1 51
r 0.233216 1 3 cbr 536 ------- 1 4.1 1073741824.0 13 26
r 0.233216 1 4 cbr 536 ------- 1 4.1 1073741824.0 13 26
r 0.233221 0 1 cbr 536 ------- 1 4.1 1073741824.0 16 32
+ 0.233221 1 3 cbr 536 ------- 1 4.1 1073741824.0 16 32
- 0.233221 1 3 cbr 536 ------- 1 4.1 1073741824.0 16 32
+ 0.233221 1 4 cbr 536 ------- 1 4.1 1073741824.0 16 32
- 0.233221 1 4 cbr 536 ------- 1 4.1 1073741824.0 16 32
r 0.233227 2 0 cbr 536 ------- 1 4.1 1073741824.0 19 38
+ 0.233227 0 1 cbr 536 ------- 1 4.1 1073741824.0 19 38
- 0.233227 0 1 cbr 536 ------- 1 4.1 1073741824.0 19 38
r 0.233227 2 5 cbr 536 ------- 1 4.1 1073741824.0 19 38
r 0.233232 0 2 encap 556 ------- 0 4.3 2.0 -1 45
+ 0.233232 2 0 cbr 536 ------- 1 4.1 1073741824.0 22 44
- 0.233232 2 0 cbr 536 ------- 1 4.1 1073741824.0 22 44
+ 0.233232 2 5 cbr 536 ------- 1 4.1 1073741824.0 22 44
- 0.233232 2 5 cbr 536 ------- 1 4.1 1073741824.0 22 44
+ 0.237216 4 1 encap 556 ------- 0 4.3 2.0 -1 65
- 0.237216 4 1 encap 556 ------- 0 4.3 2.0 -1 65
r 0.237317 4 1 encap 556 ------- 0 4.3 2.0 -1 59
+ 0.237317 1 0 encap 556 ------- 0 4.3 2.0 -1 59
- 0.237317 1 0 encap 556 ------- 0 4.3 2.0 -1 59
r 0.237419 1 0 encap 556 ------- 0 4.3 2.0 -1 53
+ 0.237419 0 2 encap 556 ------- 0 4.3 2.0 -1 53
- 0.237419 0 2 encap 556 ------- 0 4.3 2.0 -1 53
r 0.237504 1 3 cbr 536 ------- 1 4.1 1073741824.0 14 28
r 0.237504 1 4 cbr 536 ------- 1 4.1 1073741824.0 14 28
r 0.237509 0 1 cbr 536 ------- 1 4.1 1073741824.0 17 34
+ 0.237509 1 3 cbr 536 ------- 1 4.1 1073741824.0 17 34
- 0.237509 1 3 cbr 536 ------- 1 4.1 1073741824.0 17 34
+ 0.237509 1 4 cbr 536 ------- 1 4.1 1073741824.0 17 34
- 0.237509 1 4 cbr 536 ------- 1 4.1 1073741824.0 17 34
r 0.237515 2 0 cbr 536 ------- 1 4.1 1073741824.0 20 40
+ 0.237515 0 1 cbr 536 ------- 1 4.1 1073741824.0 20 40
- 0.237515 0 1 cbr 536 ------- 1 4.1 1073741824.0 20 40
r 0.237515 2 5 cbr 536 ------- 1 4.1 1073741824.0 20 40
r 0.23752 0 2 encap 556 ------- 0 4.3 2.0 -1 47
+ 0.23752 2 0 cbr 536 ------- 1 4.1 1073741824.0 23 46
- 0.23752 2 0 cbr 536 ------- 1 4.1 1073741824.0 23 46
+ 0.23752 2 5 cbr 536 ------- 1 4.1 1073741824.0 23 46
- 0.23752 2 5 cbr 536 ------- 1 4.1 1073741824.0 23 46
+ 0.241504 4 1 encap 556 ------- 0 4.3 2.0 -1 67
- 0.241504 4 1 encap 556 ------- 0 4.3 2.0 -1 67
r 0.241605 4 1 encap 556 ------- 0 4.3 2.0 -1 61
+ 0.241605 1 0 encap 556 ------- 0 4.3 2.0 -1 61
- 0.241605 1 0 encap 556 ------- 0 4.3 2.0 -1 61