+ 1 3 1 cbr 536 ------- 0 3.0 0.1 0 0
- 1 3 1 cbr 536 ------- 0 3.0 0.1 0 0
+ 1.004288 3 1 cbr 536 ------- 0 3.0 0.1 1 1
- 1.004288 3 1 cbr 536 ------- 0 3.0 0.1 1 1
+ 1.008576 3 1 cbr 536 ------- 0 3.0 0.1 2 2
- 1.008576 3 1 cbr 536 ------- 0 3.0 0.1 2 2
r 1.012859 3 1 cbr 536 ------- 0 3.0 0.1 0 0
+ 1.012859 1 0 cbr 536 ------- 0 3.0 0.1 0 0
- 1.012859 1 0 cbr 536 ------- 0 3.0 0.1 0 0
+ 1.012864 3 1 cbr 536 ------- 0 3.0 0.1 3 3
- 1.012864 3 1 cbr 536 ------- 0 3.0 0.1 3 3
r 1.017147 3 1 cbr 536 ------- 0 3.0 0.1 1 1
+ 1.017147 1 0 cbr 536 ------- 0 3.0 0.1 1 1
- 1.017147 1 0 cbr 536 ------- 0 3.0 0.1 1 1
+ 1.017152 3 1 cbr 536 ------- 0 3.0 0.1 4 4
- 1.017152 3 1 cbr 536 ------- 0 3.0 0.1 4 4
r 1.021435 3 1 cbr 536 ------- 0 3.0 0.1 2 2
+ 1.021435 1 0 cbr 536 ------- 0 3.0 0.1 2 2
- 1.021435 1 0 cbr 536 ------- 0 3.0 0.1 2 2
+ 1.02144 3 1 cbr 536 ------- 0 3.0 0.1 5 5
- 1.02144 3 1 cbr 536 ------- 0 3.0 0.1 5 5
r 1.025717 1 0 cbr 536 ------- 0 3.0 0.1 0 0
r 1.025723 3 1 cbr 536 ------- 0 3.0 0.1 3 3
+ 1.025723 1 0 cbr 536 ------- 0 3.0 0.1 3 3
- 1.025723 1 0 cbr 536 ------- 0 3.0 0.1 3 3
+ 1.025728 3 1 cbr 536 ------- 0 3.0 0.1 6 6
- 1.025728 3 1 cbr 536 ------- 0 3.0 0.1 6 6
r 1.030005 1 0 cbr 536 ------- 0 3.0 0.1 1 1
r 1.030011 3 1 cbr 536 ------- 0 3.0 0.1 4 4
+ 1.030011 1 0 cbr 536 ------- 0 3.0 0.1 4 4
- 1.030011 1 0 cbr 536 ------- 0 3.0 0.1 4 4
+ 1.030016 3 1 cbr 536 ------- 0 3.0 0.1 7 7
- 1.030016 3 1 cbr 536 ------- 0 3.0 0.1 7 7
r 1.034293 1 0 cbr 536 ------- 0 3.0 0.1 2 2
r 1.034299 3 1 cbr 536 ------- 0 3.0 0.1 5 5
+ 1.034299 1 0 cbr 536 ------- 0 3.0 0.1 5 5
- 1.034299 1 0 cbr 536 ------- 0 3.0 0.1 5 5
+ 1.034304 3 1 cbr 536 ------- 0 3.0 0.1 8 8
- 1.034304 3 1 cbr 536 ------- 0 3.0 0.1 8 8
r 1.038581 1 0 cbr 536 ------- 0 3.0 0.1 3 3
r 1.038587 3 1 cbr 536 ------- 0 3.0 0.1 6 6
+ 1.038587 1 0 cbr 536 ------- 0 3.0 0.1 6 6
- 1.038587 1 0 cbr 536 ------- 0 3.0 0.1 6 6
+ 1.038592 3 1 cbr 536 ------- 0 3.0 0.1 9 9
- 1.038592 3 1 cbr 536 ------- 0 3.0 0.1 9 9
r 1.042869 1 0 cbr 536 ------- 0 3.0 0.1 4 4
r 1.042875 3 1 cbr 536 ------- 0 3.0 0.1 7 7
+ 1.042875 1 0 cbr 536 ------- 0 3.0 0.1 7 7
- 1.042875 1 0 cbr 536 ------- 0 3.0 0.1 7 7
+ 1.04288 3 1 cbr 536 ------- 0 3.0 0.1 10 10
- 1.04288 3 1 cbr 536 ------- 0 3.0 0.1 10 10
r 1.047157 1 0 cbr 536 ------- 0 3.0 0.1 5 5
r 1.047163 3 1 cbr 536 ------- 0 3.0 0.1 8 8
+ 1.047163 1 0 cbr 536 ------- 0 3.0 0.1 8 8
- 1.047163 1 0 cbr 536 ------- 0 3.0 0.1 8 8
+ 1.047168 3 1 cbr 536 ------- 0 3.0 0.1 11 11
- 1.047168 3 1 cbr 536 ------- 0 3.0 0.1 11 11
r 1.051445 1 0 cbr 536 ------- 0 3.0 0.1 6 6
r 1.051451 3 1 cbr 536 ------- 0 3.0 0.1 9 9
+ 1.051451 1 0 cbr 536 ------- 0 3.0 0.1 9 9
- 1.051451 1 0 cbr 536 ------- 0 3.0 0.1 9 9
+ 1.051456 3 1 cbr 536 ------- 0 3.0 0.1 12 12
- 1.051456 3 1 cbr 536 ------- 0 3.0 0.1 12 12
r 1.055733 1 0 cbr 536 ------- 0 3.0 0.1 7 7
r 1.055739 3 1 cbr 536 ------- 0 3.0 0.1 10 10
+ 1.055739 1 0 cbr 536 ------- 0 3.0 0.1 10 10
- 1.055739 1 0 cbr 536 ------- 0 3.0 0.1 10 10
+ 1.055744 3 1 cbr 536 ------- 0 3.0 0.1 13 13
- 1.055744 3 1 cbr 536 ------- 0 3.0 0.1 13 13
r 1.060021 1 0 cbr 536 ------- 0 3.0 0.1 8 8
r 1.060027 3 1 cbr 536 ------- 0 3.0 0.1 11 11
+ 1.060027 1 0 cbr 536 ------- 0 3.0 0.1 11 11
- 1.060027 1 0 cbr 536 ------- 0 3.0 0.1 11 11
+ 1.060032 3 1 cbr 536 ------- 0 3.0 0.1 14 14
- 1.060032 3 1 cbr 536 ------- 0 3.0 0.1 14 14
r 1.064309 1 0 cbr 536 ------- 0 3.0 0.1 9 9
r 1.064315 3 1 cbr 536 ------- 0 3.0 0.1 12 12
+ 1.064315 1 0 cbr 536 ------- 0 3.0 0.1 12 12
- 1.064315 1 0 cbr 536 ------- 0 3.0 0.1 12 12
+ 1.06432 3 1 cbr 536 ------- 0 3.0 0.1 15 15
- 1.06432 3 1 cbr 536 ------- 0 3.0 0.1 15 15
r 1.068597 1 0 cbr 536 ------- 0 3.0 0.1 10 10
r 1.068603 3 1 cbr 536 ------- 0 3.0 0.1 13 13
+ 1.068603 1 0 cbr 536 ------- 0 3.0 0.1 13 13
- 1.068603 1 0 cbr 536 ------- 0 3.0 0.1 13 13
+ 1.068608 3 1 cbr 536 ------- 0 3.0 0.1 16 16
- 1.068608 3 1 cbr 536 ------- 0 3.0 0.1 16 16
r 1.072885 1 0 cbr 536 ------- 0 3.0 0.1 11 11
r 1.072891 3 1 cbr 536 ------- 0 3.0 0.1 14 14
+ 1.072891 1 0 cbr 536 ------- 0 3.0 0.1 14 14
- 1.072891 1 0 cbr 536 ------- 0 3.0 0.1 14 14
+ 1.072896 3 1 cbr 536 ------- 0 3.0 0.1 17 17
- 1.072896 3 1 cbr 536 ------- 0 3.0 0.1 17 17
r 1.077173 1 0 cbr 536 ------- 0 3.0 0.1 12 12
r 1.077179 3 1 cbr 536 ------- 0 3.0 0.1 15 15
+ 1.077179 1 0 cbr 536 ------- 0 3.0 0.1 15 15
- 1.077179 1 0 cbr 536 ------- 0 3.0 0.1 15 15
+ 1.077184 3 1 cbr 536 ------- 0 3.0 0.1 18 18
- 1.077184 3 1 cbr 536 ------- 0 3.0 0.1 18 18
r 1.081461 1 0 cbr 536 ------- 0 3.0 0.1 13 13
r 1.081467 3 1 cbr 536 ------- 0 3.0 0.1 16 16
+ 1.081467 1 0 cbr 536 ------- 0 3.0 0.1 16 16
- 1.081467 1 0 cbr 536 ------- 0 3.0 0.1 16 16
+ 1.081472 3 1 cbr 536 ------- 0 3.0 0.1 19 19
- 1.081472 3 1 cbr 536 ------- 0 3.0 0.1 19 19
r 1.085749 1 0 cbr 536 ------- 0 3.0 0.1 14 14
r 1.085755 3 1 cbr 536 ------- 0 3.0 0.1 17 17
+ 1.085755 1 0 cbr 536 ------- 0 3.0 0.1 17 17
- 1.085755 1 0 cbr 536 ------- 0 3.0 0.1 17 17
+ 1.08576 3 1 cbr 536 ------- 0 3.0 0.1 20 20
- 1.08576 3 1 cbr 536 ------- 0 3.0 0.1 20 20
r 1.090037 1 0 cbr 536 ------- 0 3.0 0.1 15 15
r 1.090043 3 1 cbr 536 ------- 0 3.0 0.1 18 18
+ 1.090043 1 0 cbr 536 ------- 0 3.0 0.1 18 18
- 1.090043 1 0 cbr 536 ------- 0 3.0 0.1 18 18
+ 1.090048 3 1 cbr 536 ------- 0 3.0 0.1 21 21
- 1.090048 3 1 cbr 536 ------- 0 3.0 0.1 21 21
r 1.094325 1 0 cbr 536 ------- 0 3.0 0.1 16 16
r 1.094331 3 1 cbr 536 ------- 0 3.0 0.1 19 19
+ 1.094331 1 0 cbr 536 ------- 0 3.0 0.1 19 19
- 1.094331 1 0 cbr 536 ------- 0 3.0 0.1 19 19
+ 1.094336 3 1 cbr 536 ------- 0 3.0 0.1 22 22
- 1.094336 3 1 cbr 536 ------- 0 3.0 0.1 22 22
r 1.098613 1 0 cbr 536 ------- 0 3.0 0.1 17 17
r 1.098619 3 1 cbr 536 ------- 0 3.0 0.1 20 20
+ 1.098619 1 0 cbr 536 ------- 0 3.0 0.1 20 20
- 1.098619 1 0 cbr 536 ------- 0 3.0 0.1 20 20
+ 1.098624 3 1 cbr 536 ------- 0 3.0 0.1 23 23
- 1.098624 3 1 cbr 536 ------- 0 3.0 0.1 23 23
+ 1.1 0 1 cbr 536 ------- 1 0.0 2.0 0 24
- 1.1 0 1 cbr 536 ------- 1 0.0 2.0 0 24
r 1.102901 1 0 cbr 536 ------- 0 3.0 0.1 18 18
r 1.102907 3 1 cbr 536 ------- 0 3.0 0.1 21 21
+ 1.102907 1 0 cbr 536 ------- 0 3.0 0.1 21 21
- 1.102907 1 0 cbr 536 ------- 0 3.0 0.1 21 21
+ 1.102912 3 1 cbr 536 ------- 0 3.0 0.1 24 25
- 1.102912 3 1 cbr 536 ------- 0 3.0 0.1 24 25
+ 1.104288 0 1 cbr 536 ------- 1 0.0 2.0 1 26
- 1.104288 0 1 cbr 536 ------- 1 0.0 2.0 1 26
r 1.107189 1 0 cbr 536 ------- 0 3.0 0.1 19 19
r 1.107195 3 1 cbr 536 ------- 0 3.0 0.1 22 22
+ 1.107195 1 0 cbr 536 ------- 0 3.0 0.1 22 22
- 1.107195 1 0 cbr 536 ------- 0 3.0 0.1 22 22
+ 1.1072 3 1 cbr 536 ------- 0 3.0 0.1 25 27
- 1.1072 3 1 cbr 536 ------- 0 3.0 0.1 25 27
+ 1.108576 0 1 cbr 536 ------- 1 0.0 2.0 2 28
- 1.108576 0 1 cbr 536 ------- 1 0.0 2.0 2 28
r 1.111477 1 0 cbr 536 ------- 0 3.0 0.1 20 20
r 1.111483 3 1 cbr 536 ------- 0 3.0 0.1 23 23
+ 1.111483 1 0 cbr 536 ------- 0 3.0 0.1 23 23
- 1.111483 1 0 cbr 536 ------- 0 3.0 0.1 23 23
+ 1.111488 3 1 cbr 536 ------- 0 3.0 0.1 26 29
- 1.111488 3 1 cbr 536 ------- 0 3.0 0.1 26 29
r 1.112859 0 1 cbr 536 ------- 1 0.0 2.0 0 24
+ 1.112859 1 2 cbr 536 ------- 1 0.0 2.0 0 24
- 1.112859 1 2 cbr 536 ------- 1 0.0 2.0 0 24
+ 1.112864 0 1 cbr 536 ------- 1 0.0 2.0 3 30
- 1.112864 0 1 cbr 536 ------- 1 0.0 2.0 3 30
r 1.115765 1 0 cbr 536 ------- 0 3.0 0.1 21 21
r 1.115771 3 1 cbr 536 ------- 0 3.0 0.1 24 25
+ 1.115771 1 0 cbr 536 ------- 0 3.0 0.1 24 25
- 1.115771 1 0 cbr 536 ------- 0 3.0 0.1 24 25
+ 1.115776 3 1 cbr 536 ------- 0 3.0 0.1 27 31
- 1.115776 3 1 cbr 536 ------- 0 3.0 0.1 27 31
r 1.117147 0 1 cbr 536 ------- 1 0.0 2.0 1 26
+ 1.117147 1 2 cbr 536 ------- 1 0.0 2.0 1 26
- 1.117147 1 2 cbr 536 ------- 1 0.0 2.0 1 26
+ 1.117152 0 1 cbr 536 ------- 1 0.0 2.0 4 32
- 1.117152 0 1 cbr 536 ------- 1 0.0 2.0 4 32
r 1.120053 1 0 cbr 536 ------- 0 3.0 0.1 22 22
r 1.120059 3 1 cbr 536 ------- 0 3.0 0.1 25 27
+ 1.120059 1 0 cbr 536 ------- 0 3.0 0.1 25 27
- 1.120059 1 0 cbr 536 ------- 0 3.0 0.1 25 27
+ 1.120064 3 1 cbr 536 ------- 0 3.0 0.1 28 33
- 1.120064 3 1 cbr 536 ------- 0 3.0 0.1 28 33
r 1.121435 0 1 cbr 536 ------- 1 0.0 2.0 2 28
+ 1.121435 1 2 cbr 536 ------- 1 0.0 2.0 2 28
- 1.121435 1 2 cbr 536 ------- 1 0.0 2.0 2 28
+ 1.12144 0 1 cbr 536 ------- 1 0.0 2.0 5 34
- 1.12144 0 1 cbr 536 ------- 1 0.0 2.0 5 34
r 1.124341 1 0 cbr 536 ------- 0 3.0 0.1 23 23
r 1.124347 3 1 cbr 536 ------- 0 3.0 0.1 26 29
+ 1.124347 1 0 cbr 536 ------- 0 3.0 0.1 26 29
- 1.124347 1 0 cbr 536 ------- 0 3.0 0.1 26 29
+ 1.124352 3 1 cbr 536 ------- 0 3.0 0.1 29 35
- 1.124352 3 1 cbr 536 ------- 0 3.0 0.1 29 35
r 1.125717 1 2 cbr 536 ------- 1 0.0 2.0 0 24
r 1.125723 0 1 cbr 536 ------- 1 0.0 2.0 3 30
+ 1.125723 1 2 cbr 536 ------- 1 0.0 2.0 3 30
- 1.125723 1 2 cbr 536 ------- 1 0.0 2.0 3 30
+ 1.125728 0 1 cbr 536 ------- 1 0.0 2.0 6 36
- 1.125728 0 1 cbr 536 ------- 1 0.0 2.0 6 36
r 1.128629 1 0 cbr 536 ------- 0 3.0 0.1 24 25
r 1.128635 3 1 cbr 536 ------- 0 3.0 0.1 27 31
+ 1.128635 1 0 cbr 536 ------- 0 3.0 0.1 27 31
- 1.128635 1 0 cbr 536 ------- 0 3.0 0.1 27 31
+ 1.12864 3 1 cbr 536 ------- 0 3.0 0.1 30 37
- 1.12864 3 1 cbr 536 ------- 0 3.0 0.1 30 37
r 1.130005 1 2 cbr 536 ------- 1 0.0 2.0 1 26
r 1.130011 0 1 cbr 536 ------- 1 0.0 2.0 4 32
+ 1.130011 1 2 cbr 536 ------- 1 0.0 2.0 4 32
- 1.130011 1 2 cbr 536 ------- 1 0.0 2.0 4 32
+ 1.130016 0 1 cbr 536 ------- 1 0.0 2.0 7 38
- 1.130016 0 1 cbr 536 ------- 1 0.0 2.0 7 38
r 1.132917 1 0 cbr 536 ------- 0 3.0 0.1 25 27
r 1.132923 3 1 cbr 536 ------- 0 3.0 0.1 28 33
+ 1.132923 1 0 cbr 536 ------- 0 3.0 0.1 28 33
- 1.132923 1 0 cbr 536 ------- 0 3.0 0.1 28 33
+ 1.132928 3 1 cbr 536 ------- 0 3.0 0.1 31 39
- 1.132928 3 1 cbr 536 ------- 0 3.0 0.1 31 39
r 1.134293 1 2 cbr 536 ------- 1 0.0 2.0 2 28
r 1.134299 0 1 cbr 536 ------- 1 0.0 2.0 5 34
+ 1.134299 1 2 cbr 536 ------- 1 0.0 2.0 5 34
- 1.134299 1 2 cbr 536 ------- 1 0.0 2.0 5 34
+ 1.134304 0 1 cbr 536 ------- 1 0.0 2.0 8 40
- 1.134304 0 1 cbr 536 ------- 1 0.0 2.0 8 40
r 1.137205 1 0 cbr 536 ------- 0 3.0 0.1 26 29
r 1.137211 3 1 cbr 536 ------- 0 3.0 0.1 29 35
+ 1.137211 1 0 cbr 536 ------- 0 3.0 0.1 29 35
- 1.137211 1 0 cbr 536 ------- 0 3.0 0.1 29 35
+ 1.137216 3 1 cbr 536 ------- 0 3.0 0.1 32 41
- 1.137216 3 1 cbr 536 ------- 0 3.0 0.1 32 41
r 1.138581 1 2 cbr 536 ------- 1 0.0 2.0 3 30
r 1.138587 0 1 cbr 536 ------- 1 0.0 2.0 6 36
+ 1.138587 1 2 cbr 536 ------- 1 0.0 2.0 6 36
- 1.138587 1 2 cbr 536 ------- 1 0.0 2.0 6 36
+ 1.138592 0 1 cbr 536 ------- 1 0.0 2.0 9 42
- 1.138592 0 1 cbr 536 ------- 1 0.0 2.0 9 42
r 1.141493 1 0 cbr 536 ------- 0 3.0 0.1 27 31
r 1.141499 3 1 cbr 536 ------- 0 3.0 0.1 30 37
+ 1.141499 1 0 cbr 536 ------- 0 3.0 0.1 30 37
- 1.141499 1 0 cbr 536 ------- 0 3.0 0.1 30 37
+ 1.141504 3 1 cbr 536 ------- 0 3.0 0.1 33 43
- 1.141504 3 1 cbr 536 ------- 0 3.0 0.1 33 43
r 1.142869 1 2 cbr 536 ------- 1 0.0 2.0 4 32
r 1.142875 0 1 cbr 536 ------- 1 0.0 2.0 7 38
+ 1.142875 1 2 cbr 536 ------- 1 0.0 2.0 7 38
- 1.142875 1 2 cbr 536 ------- 1 0.0 2.0 7 38
+ 1.14288 0 1 cbr 536 ------- 1 0.0 2.0 10 44
- 1.14288 0 1 cbr 536 ------- 1 0.0 2.0 10 44
r 1.145781 1 0 cbr 536 ------- 0 3.0 0.1 28 33
r 1.145787 3 1 cbr 536 ------- 0 3.0 0.1 31 39
+ 1.145787 1 0 cbr 536 ------- 0 3.0 0.1 31 39
- 1.145787 1 0 cbr 536 ------- 0 3.0 0.1 31 39
+ 1.145792 3 1 cbr 536 ------- 0 3.0 0.1 34 45
- 1.145792 3 1 cbr 536 ------- 0 3.0 0.1 34 45
r 1.147157 1 2 cbr 536 ------- 1 0.0 2.0 5 34
r 1.147163 0 1 cbr 536 ------- 1 0.0 2.0 8 40
+ 1.147163 1 2 cbr 536 ------- 1 0.0 2.0 8 40
- 1.147163 1 2 cbr 536 ------- 1 0.0 2.0 8 40
+ 1.147168 0 1 cbr 536 ------- 1 0.0 2.0 11 46
- 1.147168 0 1 cbr 536 ------- 1 0.0 2.0 11 46
r 1.150069 1 0 cbr 536 ------- 0 3.0 0.1 29 35
r 1.150075 3 1 cbr 536 ------- 0 3.0 0.1 32 41
+ 1.150075 1 0 cbr 536 ------- 0 3.0 0.1 32 41
- 1.150075 1 0 cbr 536 ------- 0 3.0 0.1 32 41
+ 1.15008 3 1 cbr 536 ------- 0 3.0 0.1 35 47
- 1.15008 3 1 cbr 536 ------- 0 3.0 0.1 35 47
r 1.151445 1 2 cbr 536 ------- 1 0.0 2.0 6 36
r 1.151451 0 1 cbr 536 ------- 1 0.0 2.0 9 42
+ 1.151451 1 2 cbr 536 ------- 1 0.0 2.0 9 42
- 1.151451 1 2 cbr 536 ------- 1 0.0 2.0 9 42
+ 1.151456 0 1 cbr 536 ------- 1 0.0 2.0 12 48
- 1.151456 0 1 cbr 536 ------- 1 0.0 2.0 12 48
r 1.154357 1 0 cbr 536 ------- 0 3.0 0.1 30 37
r 1.154363 3 1 cbr 536 ------- 0 3.0 0.1 33 43
+ 1.154363 1 0 cbr 536 ------- 0 3.0 0.1 33 43
- 1.154363 1 0 cbr 536 ------- 0 3.0 0.1 33 43
+ 1.154368 3 1 cbr 536 ------- 0 3.0 0.1 36 49
- 1.154368 3 1 cbr 536 ------- 0 3.0 0.1 36 49
r 1.155733 1 2 cbr 536 ------- 1 0.0 2.0 7 38
r 1.155739 0 1 cbr 536 ------- 1 0.0 2.0 10 44
+ 1.155739 1 2 cbr 536 ------- 1 0.0 2.0 10 44
- 1.155739 1 2 cbr 536 ------- 1 0.0 2.0 10 44
+ 1.155744 0 1 cbr 536 ------- 1 0.0 2.0 13 50
- 1.155744 0 1 cbr 536 ------- 1 0.0 2.0 13 50
r 1.158645 1 0 cbr 536 ------- 0 3.0 0.1 31 39
r 1.158651 3 1 cbr 536 ------- 0 3.0 0.1 34 45
+ 1.158651 1 0 cbr 536 ------- 0 3.0 0.1 34 45
- 1.158651 1 0 cbr 536 ------- 0 3.0 0.1 34 45
+ 1.158656 3 1 cbr 536 ------- 0 3.0 0.1 37 51
- 1.158656 3 1 cbr 536 ------- 0 3.0 0.1 37 51
r 1.160021 1 2 cbr 536 ------- 1 0.0 2.0 8 40
r 1.160027 0 1 cbr 536 ------- 1 0.0 2.0 11 46
+ 1.160027 1 2 cbr 536 ------- 1 0.0 2.0 11 46
- 1.160027 1 2 cbr 536 ------- 1 0.0 2.0 11 46
+ 1.160032 0 1 cbr 536 ------- 1 0.0 2.0 14 52
- 1.160032 0 1 cbr 536 ------- 1 0.0 2.0 14 52
r 1.162933 1 0 cbr 536 ------- 0 3.0 0.1 32 41
r 1.162939 3 1 cbr 536 ------- 0 3.0 0.1 35 47
+ 1.162939 1 0 cbr 536 ------- 0 3.0 0.1 35 47
- 1.162939 1 0 cbr 536 ------- 0 3.0 0.1 35 47
+ 1.162944 3 1 cbr 536 ------- 0 3.0 0.1 38 53
- 1.162944 3 1 cbr 536 ------- 0 3.0 0.1 38 53
r 1.164309 1 2 cbr 536 ------- 1 0.0 2.0 9 42
r 1.164315 0 1 cbr 536 ------- 1 0.0 2.0 12 48
+ 1.164315 1 2 cbr 536 ------- 1 0.0 2.0 12 48
- 1.164315 1 2 cbr 536 ------- 1 0.0 2.0 12 48
+ 1.16432 0 1 cbr 536 ------- 1 0.0 2.0 15 54
- 1.16432 0 1 cbr 536 ------- 1 0.0 2.0 15 54
r 1.167221 1 0 cbr 536 ------- 0 3.0 0.1 33 43
r 1.167227 3 1 cbr 536 ------- 0 3.0 0.1 36 49
+ 1.167227 1 0 cbr 536 ------- 0 3.0 0.1 36 49
- 1.167227 1 0 cbr 536 ------- 0 3.0 0.1 36 49
+ 1.167232 3 1 cbr 536 ------- 0 3.0 0.1 39 55
- 1.167232 3 1 cbr 536 ------- 0 3.0 0.1 39 55
r 1.168597 1 2 cbr 536 ------- 1 0.0 2.0 10 44
r 1.168603 0 1 cbr 536 ------- 1 0.0 2.0 13 50
+ 1.168603 1 2 cbr 536 ------- 1 0.0 2.0 13 50
- 1.168603 1 2 cbr 536 ------- 1 0.0 2.0 13 50
+ 1.168608 0 1 cbr 536 ------- 1 0.0 2.0 16 56
- 1.168608 0 1 cbr 536 ------- 1 0.0 2.0 16 56
r 1.171509 1 0 cbr 536 ------- 0 3.0 0.1 34 45
r 1.171515 3 1 cbr 536 ------- 0 3.0 0.1 37 51
+ 1.171515 1 0 cbr 536 ------- 0 3.0 0.1 37 51
- 1.171515 1 0 cbr 536 ------- 0 3.0 0.1 37 51
+ 1.17152 3 1 cbr 536 ------- 0 3.0 0.1 40 57
- 1.17152 3 1 cbr 536 ------- 0 3.0 0.1 40 57
r 1.172885 1 2 cbr 536 ------- 1 0.0 2.0 11 46
r 1.172891 0 1 cbr 536 ------- 1 0.0 2.0 14 52
+ 1.172891 1 2 cbr 536 ------- 1 0.0 2.0 14 52
- 1.172891 1 2 cbr 536 ------- 1 0.0 2.0 14 52
+ 1.172896 0 1 cbr 536 ------- 1 0.0 2.0 17 58
- 1.172896 0 1 cbr 536 ------- 1 0.0 2.0 17 58
r 1.175797 1 0 cbr 536 ------- 0 3.0 0.1 35 47
r 1.175803 3 1 cbr 536 ------- 0 3.0 0.1 38 53
+ 1.175803 1 0 cbr 536 ------- 0 3.0 0.1 38 53
- 1.175803 1 0 cbr 536 ------- 0 3.0 0.1 38 53
+ 1.175808 3 1 cbr 536 ------- 0 3.0 0.1 41 59
- 1.175808 3 1 cbr 536 ------- 0 3.0 0.1 41 59
r 1.177173 1 2 cbr 536 ------- 1 0.0 2.0 12 48
r 1.177179 0 1 cbr 536 ------- 1 0.0 2.0 15 54
+ 1.177179 1 2 cbr 536 ------- 1 0.0 2.0 15 54
- 1.177179 1 2 cbr 536 ------- 1 0.0 2.0 15 54
+ 1.177184 0 1 cbr 536 ------- 1 0.0 2.0 18 60
- 1.177184 0 1 cbr 536 ------- 1 0.0 2.0 18 60
r 1.180085 1 0 cbr 536 ------- 0 3.0 0.1 36 49
r 1.180091 3 1 cbr 536 ------- 0 3.0 0.1 39 55
+ 1.180091 1 0 cbr 536 ------- 0 3.0 0.1 39 55
- 1.180091 1 0 cbr 536 ------- 0 3.0 0.1 39 55
+ 1.180096 3 1 cbr 536 ------- 0 3.0 0.1 42 61
- 1.180096 3 1 cbr 536 ------- 0 3.0 0.1 42 61
r 1.181461 1 2 cbr 536 ------- 1 0.0 2.0 13 50
r 1.181467 0 1 cbr 536 ------- 1 0.0 2.0 16 56
+ 1.181467 1 2 cbr 536 ------- 1 0.0 2.0 16 56
- 1.181467 1 2 cbr 536 ------- 1 0.0 2.0 16 56
+ 1.181472 0 1 cbr 536 ------- 1 0.0 2.0 19 62
- 1.181472 0 1 cbr 536 ------- 1 0.0 2.0 19 62
r 1.184373 1 0 cbr 536 ------- 0 3.0 0.1 37 51
r 1.184379 3 1 cbr 536 ------- 0 3.0 0.1 40 57
+ 1.184379 1 0 cbr 536 ------- 0 3.0 0.1 40 57
- 1.184379 1 0 cbr 536 ------- 0 3.0 0.1 40 57
+ 1.184384 3 1 cbr 536 ------- 0 3.0 0.1 43 63
- 1.184384 3 1 cbr 536 ------- 0 3.0 0.1 43 63
r 1.185749 1 2 cbr 536 ------- 1 0.0 2.0 14 52
r 1.185755 0 1 cbr 536 ------- 1 0.0 2.0 17 58
+ 1.185755 1 2 cbr 536 ------- 1 0.0 2.0 17 58
- 1.185755 1 2 cbr 536 ------- 1 0.0 2.0 17 58
+ 1.18576 0 1 cbr 536 ------- 1 0.0 2.0 20 64
- 1.18576 0 1 cbr 536 ------- 1 0.0 2.0 20 64
r 1.188661 1 0 cbr 536 ------- 0 3.0 0.1 38 53
r 1.188667 3 1 cbr 536 ------- 0 3.0 0.1 41 59
+ 1.188667 1 0 cbr 536 ------- 0 3.0 0.1 41 59
- 1.188667 1 0 cbr 536 ------- 0 3.0 0.1 41 59
+ 1.188672 3 1 cbr 536 ------- 0 3.0 0.1 44 65
- 1.188672 3 1 cbr 536 ------- 0 3.0 0.1 44 65
r 1.190037 1 2 cbr 536 ------- 1 0.0 2.0 15 54
r 1.190043 0 1 cbr 536 ------- 1 0.0 2.0 18 60
+ 1.190043 1 2 cbr 536 ------- 1 0.0 2.0 18 60
- 1.190043 1 2 cbr 536 ------- 1 0.0 2.0 18 60
+ 1.190048 0 1 cbr 536 ------- 1 0.0 2.0 21 66
- 1.190048 0 1 cbr 536 ------- 1 0.0 2.0 21 66
r 1.192949 1 0 cbr 536 ------- 0 3.0 0.1 39 55
r 1.192955 3 1 cbr 536 ------- 0 3.0 0.1 42 61
+ 1.192955 1 0 cbr 536 ------- 0 3.0 0.1 42 61
- 1.192955 1 0 cbr 536 ------- 0 3.0 0.1 42 61
+ 1.19296 3 1 cbr 536 ------- 0 3.0 0.1 45 67
- 1.19296 3 1 cbr 536 ------- 0 3.0 0.1 45 67
r 1.194325 1 2 cbr 536 ------- 1 0.0 2.0 16 56
r 1.194331 0 1 cbr 536 ------- 1 0.0 2.0 19 62
+ 1.194331 1 2 cbr 536 ------- 1 0.0 2.0 19 62
- 1.194331 1 2 cbr 536 ------- 1 0.0 2.0 19 62
+ 1.194336 0 1 cbr 536 ------- 1 0.0 2.0 22 68
- 1.194336 0 1 cbr 536 ------- 1 0.0 2.0 22 68
r 1.197237 1 0 cbr 536 ------- 0 3.0 0.1 40 57
r 1.197243 3 1 cbr 536 ------- 0 3.0 0.1 43 63
+ 1.197243 1 0 cbr 536 ------- 0 3.0 0.1 43 63
- 1.197243 1 0 cbr 536 ------- 0 3.0 0.1 43 63
+ 1.197248 3 1 cbr 536 ------- 0 3.0 0.1 46 69
- 1.197248 3 1 cbr 536 ------- 0 3.0 0.1 46 69
r 1.198613 1 2 cbr 536 ------- 1 0.0 2.0 17 58
r 1.198619 0 1 cbr 536 ------- 1 0.0 2.0 20 64
+ 1.198619 1 2 cbr 536 ------- 1 0.0 2.0 20 64
- 1.198619 1 2 cbr 536 ------- 1 0.0 2.0 20 64
+ 1.198624 0 1 cbr 536 ------- 1 0.0 2.0 23 70
- 1.198624 0 1 cbr 536 ------- 1 0.0 2.0 23 70
+ 1.2 0 1 tcp 1000 ------- 2 0.2 3.1 0 71
- 1.201483 0 1 tcp 1000 ------- 2 0.2 3.1 0 71
r 1.201525 1 0 cbr 536 ------- 0 3.0 0.1 41 59
r 1.201531 3 1 cbr 536 ------- 0 3.0 0.1 44 65
+ 1.201531 1 0 cbr 536 ------- 0 3.0 0.1 44 65
- 1.201531 1 0 cbr 536 ------- 0 3.0 0.1 44 65
+ 1.201536 3 1 cbr 536 ------- 0 3.0 0.1 47 72
- 1.201536 3 1 cbr 536 ------- 0 3.0 0.1 47 72
r 1.202901 1 2 cbr 536 ------- 1 0.0 2.0 18 60
r 1.202907 0 1 cbr 536 ------- 1 0.0 2.0 21 66
+ 1.202907 1 2 cbr 536 ------- 1 0.0 2.0 21 66
- 1.202907 1 2 cbr 536 ------- 1 0.0 2.0 21 66
+ 1.202912 0 1 cbr 536 ------- 1 0.0 2.0 24 73
r 1.205813 1 0 cbr 536 ------- 0 3.0 0.1 42 61
r 1.205819 3 1 cbr 536 ------- 0 3.0 0.1 45 67
+ 1.205819 1 0 cbr 536 ------- 0 3.0 0.1 45 67
- 1.205819 1 0 cbr 536 ------- 0 3.0 0.1 45 67
+ 1.205824 3 1 cbr 536 ------- 0 3.0 0.1 48 74
- 1.205824 3 1 cbr 536 ------- 0 3.0 0.1 48 74
- 1.206816 0 1 cbr 536 ------- 1 0.0 2.0 24 73
r 1.207189 1 2 cbr 536 ------- 1 0.0 2.0 19 62
r 1.207195 0 1 cbr 536 ------- 1 0.0 2.0 22 68
+ 1.207195 1 2 cbr 536 ------- 1 0.0 2.0 22 68
- 1.207195 1 2 cbr 536 ------- 1 0.0 2.0 22 68
+ 1.2072 0 1 cbr 536 ------- 1 0.0 2.0 25 75
- 1.209675 0 1 cbr 536 ------- 1 0.0 2.0 25 75
r 1.210101 1 0 cbr 536 ------- 0 3.0 0.1 43 63
r 1.210107 3 1 cbr 536 ------- 0 3.0 0.1 46 69
+ 1.210107 1 0 cbr 536 ------- 0 3.0 0.1 46 69
- 1.210107 1 0 cbr 536 ------- 0 3.0 0.1 46 69
+ 1.210112 3 1 cbr 536 ------- 0 3.0 0.1 49 76
- 1.210112 3 1 cbr 536 ------- 0 3.0 0.1 49 76
r 1.211477 1 2 cbr 536 ------- 1 0.0 2.0 20 64
r 1.211483 0 1 cbr 536 ------- 1 0.0 2.0 23 70
+ 1.211483 1 2 cbr 536 ------- 1 0.0 2.0 23 70
- 1.211483 1 2 cbr 536 ------- 1 0.0 2.0 23 70
+ 1.211488 0 1 cbr 536 ------- 1 0.0 2.0 26 77
- 1.212533 0 1 cbr 536 ------- 1 0.0 2.0 26 77
r 1.214389 1 0 cbr 536 ------- 0 3.0 0.1 44 65
r 1.214395 3 1 cbr 536 ------- 0 3.0 0.1 47 72
+ 1.214395 1 0 cbr 536 ------- 0 3.0 0.1 47 72
- 1.214395 1 0 cbr 536 ------- 0 3.0 0.1 47 72
+ 1.2144 3 1 cbr 536 ------- 0 3.0 0.1 50 78
- 1.2144 3 1 cbr 536 ------- 0 3.0 0.1 50 78
r 1.215765 1 2 cbr 536 ------- 1 0.0 2.0 21 66
+ 1.215776 0 1 cbr 536 ------- 1 0.0 2.0 27 79
- 1.215776 0 1 cbr 536 ------- 1 0.0 2.0 27 79
r 1.216816 0 1 tcp 1000 ------- 2 0.2 3.1 0 71
+ 1.216816 1 3 tcp 1000 ------- 2 0.2 3.1 0 71
- 1.216816 1 3 tcp 1000 ------- 2 0.2 3.1 0 71
r 1.218677 1 0 cbr 536 ------- 0 3.0 0.1 45 67
r 1.218683 3 1 cbr 536 ------- 0 3.0 0.1 48 74
+ 1.218683 1 0 cbr 536 ------- 0 3.0 0.1 48 74
- 1.218683 1 0 cbr 536 ------- 0 3.0 0.1 48 74
+ 1.218688 3 1 cbr 536 ------- 0 3.0 0.1 51 80
- 1.218688 3 1 cbr 536 ------- 0 3.0 0.1 51 80
r 1.219675 0 1 cbr 536 ------- 1 0.0 2.0 24 73
+ 1.219675 1 2 cbr 536 ------- 1 0.0 2.0 24 73
- 1.219675 1 2 cbr 536 ------- 1 0.0 2.0 24 73
r 1.220053 1 2 cbr 536 ------- 1 0.0 2.0 22 68
+ 1.220064 0 1 cbr 536 ------- 1 0.0 2.0 28 81
- 1.220064 0 1 cbr 536 ------- 1 0.0 2.0 28 81
r 1.222533 0 1 cbr 536 ------- 1 0.0 2.0 25 75
+ 1.222533 1 2 cbr 536 ------- 1 0.0 2.0 25 75
- 1.222533 1 2 cbr 536 ------- 1 0.0 2.0 25 75
r 1.222965 1 0 cbr 536 ------- 0 3.0 0.1 46 69
r 1.222971 3 1 cbr 536 ------- 0 3.0 0.1 49 76
+ 1.222971 1 0 cbr 536 ------- 0 3.0 0.1 49 76
- 1.222971 1 0 cbr 536 ------- 0 3.0 0.1 49 76
+ 1.222976 3 1 cbr 536 ------- 0 3.0 0.1 52 82
- 1.222976 3 1 cbr 536 ------- 0 3.0 0.1 52 82
r 1.224341 1 2 cbr 536 ------- 1 0.0 2.0 23 70
+ 1.224352 0 1 cbr 536 ------- 1 0.0 2.0 29 83
- 1.224352 0 1 cbr 536 ------- 1 0.0 2.0 29 83
r 1.225392 0 1 cbr 536 ------- 1 0.0 2.0 26 77
+ 1.225392 1 2 cbr 536 ------- 1 0.0 2.0 26 77
- 1.225392 1 2 cbr 536 ------- 1 0.0 2.0 26 77
r 1.227253 1 0 cbr 536 ------- 0 3.0 0.1 47 72
r 1.227259 3 1 cbr 536 ------- 0 3.0 0.1 50 78
+ 1.227259 1 0 cbr 536 ------- 0 3.0 0.1 50 78
- 1.227259 1 0 cbr 536 ------- 0 3.0 0.1 50 78
+ 1.227264 3 1 cbr 536 ------- 0 3.0 0.1 53 84
- 1.227264 3 1 cbr 536 ------- 0 3.0 0.1 53 84
r 1.228635 0 1 cbr 536 ------- 1 0.0 2.0 27 79
+ 1.228635 1 2 cbr 536 ------- 1 0.0 2.0 27 79
- 1.228635 1 2 cbr 536 ------- 1 0.0 2.0 27 79
+ 1.22864 0 1 cbr 536 ------- 1 0.0 2.0 30 85
- 1.22864 0 1 cbr 536 ------- 1 0.0 2.0 30 85
r 1.231541 1 0 cbr 536 ------- 0 3.0 0.1 48 74
r 1.231547 3 1 cbr 536 ------- 0 3.0 0.1 51 80
+ 1.231547 1 0 cbr 536 ------- 0 3.0 0.1 51 80
- 1.231547 1 0 cbr 536 ------- 0 3.0 0.1 51 80
+ 1.231552 3 1 cbr 536 ------- 0 3.0 0.1 54 86
- 1.231552 3 1 cbr 536 ------- 0 3.0 0.1 54 86
r 1.232149 1 3 tcp 1000 ------- 2 0.2 3.1 0 71
+ 1.232149 3 1 ack 40 ------- 2 3.1 0.2 0 87
r 1.232533 1 2 cbr 536 ------- 1 0.0 2.0 24 73
r 1.232923 0 1 cbr 536 ------- 1 0.0 2.0 28 81
+ 1.232923 1 2 cbr 536 ------- 1 0.0 2.0 28 81
- 1.232923 1 2 cbr 536 ------- 1 0.0 2.0 28 81
+ 1.232928 0 1 cbr 536 ------- 1 0.0 2.0 31 88
- 1.232928 0 1 cbr 536 ------- 1 0.0 2.0 31 88
- 1.234411 3 1 ack 40 ------- 2 3.1 0.2 0 87
r 1.235392 1 2 cbr 536 ------- 1 0.0 2.0 25 75
r 1.235829 1 0 cbr 536 ------- 0 3.0 0.1 49 76
r 1.235835 3 1 cbr 536 ------- 0 3.0 0.1 52 82
+ 1.235835 1 0 cbr 536 ------- 0 3.0 0.1 52 82
- 1.235835 1 0 cbr 536 ------- 0 3.0 0.1 52 82
+ 1.23584 3 1 cbr 536 ------- 0 3.0 0.1 55 89
- 1.23584 3 1 cbr 536 ------- 0 3.0 0.1 55 89
r 1.237211 0 1 cbr 536 ------- 1 0.0 2.0 29 83
+ 1.237211 1 2 cbr 536 ------- 1 0.0 2.0 29 83
- 1.237211 1 2 cbr 536 ------- 1 0.0 2.0 29 83
+ 1.237216 0 1 cbr 536 ------- 1 0.0 2.0 32 90
- 1.237216 0 1 cbr 536 ------- 1 0.0 2.0 32 90
r 1.238251 1 2 cbr 536 ------- 1 0.0 2.0 26 77
r 1.240117 1 0 cbr 536 ------- 0 3.0 0.1 50 78
r 1.240123 3 1 cbr 536 ------- 0 3.0 0.1 53 84
+ 1.240123 1 0 cbr 536 ------- 0 3.0 0.1 53 84
- 1.240123 1 0 cbr 536 ------- 0 3.0 0.1 53 84
+ 1.240128 3 1 cbr 536 ------- 0 3.0 0.1 56 91
- 1.240128 3 1 cbr 536 ------- 0 3.0 0.1 56 91
r 1.241493 1 2 cbr 536 ------- 1 0.0 2.0 27 79
r 1.241499 0 1 cbr 536 ------- 1 0.0 2.0 30 85
+ 1.241499 1 2 cbr 536 ------- 1 0.0 2.0 30 85
- 1.241499 1 2 cbr 536 ------- 1 0.0 2.0 30 85
+ 1.241504 0 1 cbr 536 ------- 1 0.0 2.0 33 92
- 1.241504 0 1 cbr 536 ------- 1 0.0 2.0 33 92
r 1.244405 1 0 cbr 536 ------- 0 3.0 0.1 51 80
r 1.244411 3 1 cbr 536 ------- 0 3.0 0.1 54 86
+ 1.244411 1 0 cbr 536 ------- 0 3.0 0.1 54 86
- 1.244411 1 0 cbr 536 ------- 0 3.0 0.1 54 86
+ 1.244416 3 1 cbr 536 ------- 0 3.0 0.1 57 93
- 1.244416 3 1 cbr 536 ------- 0 3.0 0.1 57 93
r 1.244624 3 1 ack 40 ------- 2 3.1 0.2 0 87
+ 1.244624 1 0 ack 40 ------- 2 3.1 0.2 0 87
r 1.245781 1 2 cbr 536 ------- 1 0.0 2.0 28 81
r 1.245787 0 1 cbr 536 ------- 1 0.0 2.0 31 88
+ 1.245787 1 2 cbr 536 ------- 1 0.0 2.0 31 88
- 1.245787 1 2 cbr 536 ------- 1 0.0 2.0 31 88
+ 1.245792 0 1 cbr 536 ------- 1 0.0 2.0 34 94
- 1.245792 0 1 cbr 536 ------- 1 0.0 2.0 34 94
- 1.247269 1 0 ack 40 ------- 2 3.1 0.2 0 87
r 1.248693 1 0 cbr 536 ------- 0 3.0 0.1 52 82
r 1.248699 3 1 cbr 536 ------- 0 3.0 0.1 55 89
+ 1.248699 1 0 cbr 536 ------- 0 3.0 0.1 55 89
- 1.248699 1 0 cbr 536 ------- 0 3.0 0.1 55 89
+ 1.248704 3 1 cbr 536 ------- 0 3.0 0.1 58 95
- 1.248704 3 1 cbr 536 ------- 0 3.0 0.1 58 95
r 1.250069 1 2 cbr 536 ------- 1 0.0 2.0 29 83
r 1.250075 0 1 cbr 536 ------- 1 0.0 2.0 32 90
+ 1.250075 1 2 cbr 536 ------- 1 0.0 2.0 32 90
- 1.250075 1 2 cbr 536 ------- 1 0.0 2.0 32 90
+ 1.25008 0 1 cbr 536 ------- 1 0.0 2.0 35 96
- 1.25008 0 1 cbr 536 ------- 1 0.0 2.0 35 96
r 1.252981 1 0 cbr 536 ------- 0 3.0 0.1 53 84
r 1.252987 3 1 cbr 536 ------- 0 3.0 0.1 56 91
+ 1.252987 1 0 cbr 536 ------- 0 3.0 0.1 56 91
- 1.252987 1 0 cbr 536 ------- 0 3.0 0.1 56 91
+ 1.252992 3 1 cbr 536 ------- 0 3.0 0.1 59 97
- 1.252992 3 1 cbr 536 ------- 0 3.0 0.1 59 97
r 1.254357 1 2 cbr 536 ------- 1 0.0 2.0 30 85
r 1.254363 0 1 cbr 536 ------- 1 0.0 2.0 33 92
+ 1.254363 1 2 cbr 536 ------- 1 0.0 2.0 33 92
- 1.254363 1 2 cbr 536 ------- 1 0.0 2.0 33 92
+ 1.254368 0 1 cbr 536 ------- 1 0.0 2.0 36 98
- 1.254368 0 1 cbr 536 ------- 1 0.0 2.0 36 98
r 1.257269 1 0 cbr 536 ------- 0 3.0 0.1 54 86
r 1.257275 3 1 cbr 536 ------- 0 3.0 0.1 57 93
+ 1.257275 1 0 cbr 536 ------- 0 3.0 0.1 57 93
- 1.257275 1 0 cbr 536 ------- 0 3.0 0.1 57 93
+ 1.25728 3 1 cbr 536 ------- 0 3.0 0.1 60 99
- 1.25728 3 1 cbr 536 ------- 0 3.0 0.1 60 99
r 1.257483 1 0 ack 40 ------- 2 3.1 0.2 0 87
+ 1.257483 0 1 tcp 1000 ------- 2 0.2 3.1 1 100
- 1.257483 0 1 tcp 1000 ------- 2 0.2 3.1 1 100
+ 1.257483 0 1 tcp 1000 ------- 2 0.2 3.1 2 101
r 1.258645 1 2 cbr 536 ------- 1 0.0 2.0 31 88
r 1.258651 0 1 cbr 536 ------- 1 0.0 2.0 34 94
+ 1.258651 1 2 cbr 536 ------- 1 0.0 2.0 34 94
- 1.258651 1 2 cbr 536 ------- 1 0.0 2.0 34 94
+ 1.258656 0 1 cbr 536 ------- 1 0.0 2.0 37 102
r 1.261557 1 0 cbr 536 ------- 0 3.0 0.1 55 89
r 1.261563 3 1 cbr 536 ------- 0 3.0 0.1 58 95
+ 1.261563 1 0 cbr 536 ------- 0 3.0 0.1 58 95
- 1.261563 1 0 cbr 536 ------- 0 3.0 0.1 58 95
+ 1.261568 3 1 cbr 536 ------- 0 3.0 0.1 61 103
- 1.261568 3 1 cbr 536 ------- 0 3.0 0.1 61 103
- 1.262816 0 1 tcp 1000 ------- 2 0.2 3.1 2 101
r 1.262933 1 2 cbr 536 ------- 1 0.0 2.0 32 90
r 1.262939 0 1 cbr 536 ------- 1 0.0 2.0 35 96
+ 1.262939 1 2 cbr 536 ------- 1 0.0 2.0 35 96
- 1.262939 1 2 cbr 536 ------- 1 0.0 2.0 35 96
+ 1.262944 0 1 cbr 536 ------- 1 0.0 2.0 38 104
r 1.265845 1 0 cbr 536 ------- 0 3.0 0.1 56 91
r 1.265851 3 1 cbr 536 ------- 0 3.0 0.1 59 97
+ 1.265851 1 0 cbr 536 ------- 0 3.0 0.1 59 97
- 1.265851 1 0 cbr 536 ------- 0 3.0 0.1 59 97
+ 1.265856 3 1 cbr 536 ------- 0 3.0 0.1 62 105
- 1.265856 3 1 cbr 536 ------- 0 3.0 0.1 62 105
r 1.267221 1 2 cbr 536 ------- 1 0.0 2.0 33 92
r 1.267227 0 1 cbr 536 ------- 1 0.0 2.0 36 98
+ 1.267227 1 2 cbr 536 ------- 1 0.0 2.0 36 98
- 1.267227 1 2 cbr 536 ------- 1 0.0 2.0 36 98
+ 1.267232 0 1 cbr 536 ------- 1 0.0 2.0 39 106
- 1.268149 0 1 cbr 536 ------- 1 0.0 2.0 37 102
r 1.270133 1 0 cbr 536 ------- 0 3.0 0.1 57 93
r 1.270139 3 1 cbr 536 ------- 0 3.0 0.1 60 99
+ 1.270139 1 0 cbr 536 ------- 0 3.0 0.1 60 99
- 1.270139 1 0 cbr 536 ------- 0 3.0 0.1 60 99
+ 1.270144 3 1 cbr 536 ------- 0 3.0 0.1 63 107
- 1.270144 3 1 cbr 536 ------- 0 3.0 0.1 63 107
- 1.271008 0 1 cbr 536 ------- 1 0.0 2.0 38 104
r 1.271509 1 2 cbr 536 ------- 1 0.0 2.0 34 94
+ 1.27152 0 1 cbr 536 ------- 1 0.0 2.0 40 108
r 1.272816 0 1 tcp 1000 ------- 2 0.2 3.1 1 100
+ 1.272816 1 3 tcp 1000 ------- 2 0.2 3.1 1 100
- 1.272816 1 3 tcp 1000 ------- 2 0.2 3.1 1 100
- 1.273867 0 1 cbr 536 ------- 1 0.0 2.0 39 106
r 1.274421 1 0 cbr 536 ------- 0 3.0 0.1 58 95
r 1.274427 3 1 cbr 536 ------- 0 3.0 0.1 61 103
+ 1.274427 1 0 cbr 536 ------- 0 3.0 0.1 61 103
- 1.274427 1 0 cbr 536 ------- 0 3.0 0.1 61 103
+ 1.274432 3 1 cbr 536 ------- 0 3.0 0.1 64 109
- 1.274432 3 1 cbr 536 ------- 0 3.0 0.1 64 109
r 1.275797 1 2 cbr 536 ------- 1 0.0 2.0 35 96
+ 1.275808 0 1 cbr 536 ------- 1 0.0 2.0 41 110
- 1.276725 0 1 cbr 536 ------- 1 0.0 2.0 40 108
r 1.278149 0 1 tcp 1000 ------- 2 0.2 3.1 2 101
+ 1.278149 1 3 tcp 1000 ------- 2 0.2 3.1 2 101
- 1.278149 1 3 tcp 1000 ------- 2 0.2 3.1 2 101
r 1.278709 1 0 cbr 536 ------- 0 3.0 0.1 59 97
r 1.278715 3 1 cbr 536 ------- 0 3.0 0.1 62 105
+ 1.278715 1 0 cbr 536 ------- 0 3.0 0.1 62 105
- 1.278715 1 0 cbr 536 ------- 0 3.0 0.1 62 105
+ 1.27872 3 1 cbr 536 ------- 0 3.0 0.1 65 111
- 1.27872 3 1 cbr 536 ------- 0 3.0 0.1 65 111
- 1.279584 0 1 cbr 536 ------- 1 0.0 2.0 41 110
r 1.280085 1 2 cbr 536 ------- 1 0.0 2.0 36 98
+ 1.280096 0 1 cbr 536 ------- 1 0.0 2.0 42 112
r 1.281008 0 1 cbr 536 ------- 1 0.0 2.0 37 102
+ 1.281008 1 2 cbr 536 ------- 1 0.0 2.0 37 102
- 1.281008 1 2 cbr 536 ------- 1 0.0 2.0 37 102
- 1.282443 0 1 cbr 536 ------- 1 0.0 2.0 42 112
r 1.282997 1 0 cbr 536 ------- 0 3.0 0.1 60 99
r 1.283003 3 1 cbr 536 ------- 0 3.0 0.1 63 107
+ 1.283003 1 0 cbr 536 ------- 0 3.0 0.1 63 107