V -t * -v 1.0a5 -a 0
A -t * -n 1 -p 0 -o 0x7fffffff -c 30 -a 1
A -t * -h 1 -m 1073741823 -s 0
c -t * -i 0 -n blue
c -t * -i 1 -n red
c -t * -i 2 -n yellow
n -t * -a 0 -s 0 -S UP -v circle -c black -i black
n -t * -a 1 -s 1 -S UP -v circle -c black -i black
n -t * -a 2 -s 2 -S UP -v circle -c black -i black
n -t * -a 3 -s 3 -S UP -v circle -c black -i black
l -t * -s 0 -d 1 -S UP -r 1500000 -D 0.01 -c black
l -t * -s 1 -d 2 -S UP -r 1500000 -D 0.01 -c black
l -t * -s 1 -d 3 -S UP -r 1500000 -D 0.01 -c black
+ -t 1 -s 3 -d 1 -p cbr -e 536 -c 0 -i 0 -a 0 -x {3.0 0.1 0 ------- null}
- -t 1 -s 3 -d 1 -p cbr -e 536 -c 0 -i 0 -a 0 -x {3.0 0.1 0 ------- null}
h -t 1 -s 3 -d 1 -p cbr -e 536 -c 0 -i 0 -a 0 -x {3.0 0.1 -1 ------- null}
+ -t 1.004288 -s 3 -d 1 -p cbr -e 536 -c 0 -i 1 -a 0 -x {3.0 0.1 1 ------- null}
- -t 1.004288 -s 3 -d 1 -p cbr -e 536 -c 0 -i 1 -a 0 -x {3.0 0.1 1 ------- null}
h -t 1.004288 -s 3 -d 1 -p cbr -e 536 -c 0 -i 1 -a 0 -x {3.0 0.1 -1 ------- null}
+ -t 1.008576 -s 3 -d 1 -p cbr -e 536 -c 0 -i 2 -a 0 -x {3.0 0.1 2 ------- null}
- -t 1.008576 -s 3 -d 1 -p cbr -e 536 -c 0 -i 2 -a 0 -x {3.0 0.1 2 ------- null}
h -t 1.008576 -s 3 -d 1 -p cbr -e 536 -c 0 -i 2 -a 0 -x {3.0 0.1 -1 ------- null}
r -t 1.01285866666667 -s 3 -d 1 -p cbr -e 536 -c 0 -i 0 -a 0 -x {3.0 0.1 0 ------- null}
+ -t 1.01285866666667 -s 1 -d 0 -p cbr -e 536 -c 0 -i 0 -a 0 -x {3.0 0.1 0 ------- null}
- -t 1.01285866666667 -s 1 -d 0 -p cbr -e 536 -c 0 -i 0 -a 0 -x {3.0 0.1 0 ------- null}
h -t 1.01285866666667 -s 1 -d 0 -p cbr -e 536 -c 0 -i 0 -a 0 -x {3.0 0.1 -1 ------- null}
+ -t 1.012864 -s 3 -d 1 -p cbr -e 536 -c 0 -i 3 -a 0 -x {3.0 0.1 3 ------- null}
- -t 1.012864 -s 3 -d 1 -p cbr -e 536 -c 0 -i 3 -a 0 -x {3.0 0.1 3 ------- null}
h -t 1.012864 -s 3 -d 1 -p cbr -e 536 -c 0 -i 3 -a 0 -x {3.0 0.1 -1 ------- null}
r -t 1.01714666666667 -s 3 -d 1 -p cbr -e 536 -c 0 -i 1 -a 0 -x {3.0 0.1 1 ------- null}
+ -t 1.01714666666667 -s 1 -d 0 -p cbr -e 536 -c 0 -i 1 -a 0 -x {3.0 0.1 1 ------- null}
- -t 1.01714666666667 -s 1 -d 0 -p cbr -e 536 -c 0 -i 1 -a 0 -x {3.0 0.1 1 ------- null}
h -t 1.01714666666667 -s 1 -d 0 -p cbr -e 536 -c 0 -i 1 -a 0 -x {3.0 0.1 -1 ------- null}
+ -t 1.017152 -s 3 -d 1 -p cbr -e 536 -c 0 -i 4 -a 0 -x {3.0 0.1 4 ------- null}
- -t 1.017152 -s 3 -d 1 -p cbr -e 536 -c 0 -i 4 -a 0 -x {3.0 0.1 4 ------- null}
h -t 1.017152 -s 3 -d 1 -p cbr -e 536 -c 0 -i 4 -a 0 -x {3.0 0.1 -1 ------- null}
r -t 1.02143466666667 -s 3 -d 1 -p cbr -e 536 -c 0 -i 2 -a 0 -x {3.0 0.1 2 ------- null}
+ -t 1.02143466666667 -s 1 -d 0 -p cbr -e 536 -c 0 -i 2 -a 0 -x {3.0 0.1 2 ------- null}
- -t 1.02143466666667 -s 1 -d 0 -p cbr -e 536 -c 0 -i 2 -a 0 -x {3.0 0.1 2 ------- null}
h -t 1.02143466666667 -s 1 -d 0 -p cbr -e 536 -c 0 -i 2 -a 0 -x {3.0 0.1 -1 ------- null}
+ -t 1.02144 -s 3 -d 1 -p cbr -e 536 -c 0 -i 5 -a 0 -x {3.0 0.1 5 ------- null}
- -t 1.02144 -s 3 -d 1 -p cbr -e 536 -c 0 -i 5 -a 0 -x {3.0 0.1 5 ------- null}
h -t 1.02144 -s 3 -d 1 -p cbr -e 536 -c 0 -i 5 -a 0 -x {3.0 0.1 -1 ------- null}
r -t 1.02571733333333 -s 1 -d 0 -p cbr -e 536 -c 0 -i 0 -a 0 -x {3.0 0.1 0 ------- null}
r -t 1.02572266666667 -s 3 -d 1 -p cbr -e 536 -c 0 -i 3 -a 0 -x {3.0 0.1 3 ------- null}
+ -t 1.02572266666667 -s 1 -d 0 -p cbr -e 536 -c 0 -i 3 -a 0 -x {3.0 0.1 3 ------- null}
- -t 1.02572266666667 -s 1 -d 0 -p cbr -e 536 -c 0 -i 3 -a 0 -x {3.0 0.1 3 ------- null}
h -t 1.02572266666667 -s 1 -d 0 -p cbr -e 536 -c 0 -i 3 -a 0 -x {3.0 0.1 -1 ------- null}
+ -t 1.025728 -s 3 -d 1 -p cbr -e 536 -c 0 -i 6 -a 0 -x {3.0 0.1 6 ------- null}
- -t 1.025728 -s 3 -d 1 -p cbr -e 536 -c 0 -i 6 -a 0 -x {3.0 0.1 6 ------- null}
h -t 1.025728 -s 3 -d 1 -p cbr -e 536 -c 0 -i 6 -a 0 -x {3.0 0.1 -1 ------- null}
r -t 1.03000533333333 -s 1 -d 0 -p cbr -e 536 -c 0 -i 1 -a 0 -x {3.0 0.1 1 ------- null}
r -t 1.03001066666667 -s 3 -d 1 -p cbr -e 536 -c 0 -i 4 -a 0 -x {3.0 0.1 4 ------- null}
+ -t 1.03001066666667 -s 1 -d 0 -p cbr -e 536 -c 0 -i 4 -a 0 -x {3.0 0.1 4 ------- null}
- -t 1.03001066666667 -s 1 -d 0 -p cbr -e 536 -c 0 -i 4 -a 0 -x {3.0 0.1 4 ------- null}
h -t 1.03001066666667 -s 1 -d 0 -p cbr -e 536 -c 0 -i 4 -a 0 -x {3.0 0.1 -1 ------- null}
+ -t 1.030016 -s 3 -d 1 -p cbr -e 536 -c 0 -i 7 -a 0 -x {3.0 0.1 7 ------- null}
- -t 1.030016 -s 3 -d 1 -p cbr -e 536 -c 0 -i 7 -a 0 -x {3.0 0.1 7 ------- null}
h -t 1.030016 -s 3 -d 1 -p cbr -e 536 -c 0 -i 7 -a 0 -x {3.0 0.1 -1 ------- null}
r -t 1.03429333333333 -s 1 -d 0 -p cbr -e 536 -c 0 -i 2 -a 0 -x {3.0 0.1 2 ------- null}
r -t 1.03429866666667 -s 3 -d 1 -p cbr -e 536 -c 0 -i 5 -a 0 -x {3.0 0.1 5 ------- null}
+ -t 1.03429866666667 -s 1 -d 0 -p cbr -e 536 -c 0 -i 5 -a 0 -x {3.0 0.1 5 ------- null}
- -t 1.03429866666667 -s 1 -d 0 -p cbr -e 536 -c 0 -i 5 -a 0 -x {3.0 0.1 5 ------- null}
h -t 1.03429866666667 -s 1 -d 0 -p cbr -e 536 -c 0 -i 5 -a 0 -x {3.0 0.1 -1 ------- null}
+ -t 1.034304 -s 3 -d 1 -p cbr -e 536 -c 0 -i 8 -a 0 -x {3.0 0.1 8 ------- null}
- -t 1.034304 -s 3 -d 1 -p cbr -e 536 -c 0 -i 8 -a 0 -x {3.0 0.1 8 ------- null}
h -t 1.034304 -s 3 -d 1 -p cbr -e 536 -c 0 -i 8 -a 0 -x {3.0 0.1 -1 ------- null}
r -t 1.03858133333333 -s 1 -d 0 -p cbr -e 536 -c 0 -i 3 -a 0 -x {3.0 0.1 3 ------- null}
r -t 1.03858666666667 -s 3 -d 1 -p cbr -e 536 -c 0 -i 6 -a 0 -x {3.0 0.1 6 ------- null}
+ -t 1.03858666666667 -s 1 -d 0 -p cbr -e 536 -c 0 -i 6 -a 0 -x {3.0 0.1 6 ------- null}
- -t 1.03858666666667 -s 1 -d 0 -p cbr -e 536 -c 0 -i 6 -a 0 -x {3.0 0.1 6 ------- null}
h -t 1.03858666666667 -s 1 -d 0 -p cbr -e 536 -c 0 -i 6 -a 0 -x {3.0 0.1 -1 ------- null}
+ -t 1.038592 -s 3 -d 1 -p cbr -e 536 -c 0 -i 9 -a 0 -x {3.0 0.1 9 ------- null}
- -t 1.038592 -s 3 -d 1 -p cbr -e 536 -c 0 -i 9 -a 0 -x {3.0 0.1 9 ------- null}
h -t 1.038592 -s 3 -d 1 -p cbr -e 536 -c 0 -i 9 -a 0 -x {3.0 0.1 -1 ------- null}
r -t 1.04286933333333 -s 1 -d 0 -p cbr -e 536 -c 0 -i 4 -a 0 -x {3.0 0.1 4 ------- null}
r -t 1.04287466666667 -s 3 -d 1 -p cbr -e 536 -c 0 -i 7 -a 0 -x {3.0 0.1 7 ------- null}
+ -t 1.04287466666667 -s 1 -d 0 -p cbr -e 536 -c 0 -i 7 -a 0 -x {3.0 0.1 7 ------- null}
- -t 1.04287466666667 -s 1 -d 0 -p cbr -e 536 -c 0 -i 7 -a 0 -x {3.0 0.1 7 ------- null}
h -t 1.04287466666667 -s 1 -d 0 -p cbr -e 536 -c 0 -i 7 -a 0 -x {3.0 0.1 -1 ------- null}
+ -t 1.04288 -s 3 -d 1 -p cbr -e 536 -c 0 -i 10 -a 0 -x {3.0 0.1 10 ------- null}
- -t 1.04288 -s 3 -d 1 -p cbr -e 536 -c 0 -i 10 -a 0 -x {3.0 0.1 10 ------- null}
h -t 1.04288 -s 3 -d 1 -p cbr -e 536 -c 0 -i 10 -a 0 -x {3.0 0.1 -1 ------- null}
r -t 1.04715733333333 -s 1 -d 0 -p cbr -e 536 -c 0 -i 5 -a 0 -x {3.0 0.1 5 ------- null}
r -t 1.04716266666667 -s 3 -d 1 -p cbr -e 536 -c 0 -i 8 -a 0 -x {3.0 0.1 8 ------- null}
+ -t 1.04716266666667 -s 1 -d 0 -p cbr -e 536 -c 0 -i 8 -a 0 -x {3.0 0.1 8 ------- null}
- -t 1.04716266666667 -s 1 -d 0 -p cbr -e 536 -c 0 -i 8 -a 0 -x {3.0 0.1 8 ------- null}
h -t 1.04716266666667 -s 1 -d 0 -p cbr -e 536 -c 0 -i 8 -a 0 -x {3.0 0.1 -1 ------- null}
+ -t 1.047168 -s 3 -d 1 -p cbr -e 536 -c 0 -i 11 -a 0 -x {3.0 0.1 11 ------- null}
- -t 1.047168 -s 3 -d 1 -p cbr -e 536 -c 0 -i 11 -a 0 -x {3.0 0.1 11 ------- null}
h -t 1.047168 -s 3 -d 1 -p cbr -e 536 -c 0 -i 11 -a 0 -x {3.0 0.1 -1 ------- null}
r -t 1.05144533333333 -s 1 -d 0 -p cbr -e 536 -c 0 -i 6 -a 0 -x {3.0 0.1 6 ------- null}
r -t 1.05145066666667 -s 3 -d 1 -p cbr -e 536 -c 0 -i 9 -a 0 -x {3.0 0.1 9 ------- null}
+ -t 1.05145066666667 -s 1 -d 0 -p cbr -e 536 -c 0 -i 9 -a 0 -x {3.0 0.1 9 ------- null}
- -t 1.05145066666667 -s 1 -d 0 -p cbr -e 536 -c 0 -i 9 -a 0 -x {3.0 0.1 9 ------- null}
h -t 1.05145066666667 -s 1 -d 0 -p cbr -e 536 -c 0 -i 9 -a 0 -x {3.0 0.1 -1 ------- null}
+ -t 1.051456 -s 3 -d 1 -p cbr -e 536 -c 0 -i 12 -a 0 -x {3.0 0.1 12 ------- null}
- -t 1.051456 -s 3 -d 1 -p cbr -e 536 -c 0 -i 12 -a 0 -x {3.0 0.1 12 ------- null}
h -t 1.051456 -s 3 -d 1 -p cbr -e 536 -c 0 -i 12 -a 0 -x {3.0 0.1 -1 ------- null}
r -t 1.05573333333333 -s 1 -d 0 -p cbr -e 536 -c 0 -i 7 -a 0 -x {3.0 0.1 7 ------- null}
r -t 1.05573866666667 -s 3 -d 1 -p cbr -e 536 -c 0 -i 10 -a 0 -x {3.0 0.1 10 ------- null}
+ -t 1.05573866666667 -s 1 -d 0 -p cbr -e 536 -c 0 -i 10 -a 0 -x {3.0 0.1 10 ------- null}
- -t 1.05573866666667 -s 1 -d 0 -p cbr -e 536 -c 0 -i 10 -a 0 -x {3.0 0.1 10 ------- null}
h -t 1.05573866666667 -s 1 -d 0 -p cbr -e 536 -c 0 -i 10 -a 0 -x {3.0 0.1 -1 ------- null}
+ -t 1.055744 -s 3 -d 1 -p cbr -e 536 -c 0 -i 13 -a 0 -x {3.0 0.1 13 ------- null}
- -t 1.055744 -s 3 -d 1 -p cbr -e 536 -c 0 -i 13 -a 0 -x {3.0 0.1 13 ------- null}
h -t 1.055744 -s 3 -d 1 -p cbr -e 536 -c 0 -i 13 -a 0 -x {3.0 0.1 -1 ------- null}
r -t 1.06002133333333 -s 1 -d 0 -p cbr -e 536 -c 0 -i 8 -a 0 -x {3.0 0.1 8 ------- null}
r -t 1.06002666666667 -s 3 -d 1 -p cbr -e 536 -c 0 -i 11 -a 0 -x {3.0 0.1 11 ------- null}
+ -t 1.06002666666667 -s 1 -d 0 -p cbr -e 536 -c 0 -i 11 -a 0 -x {3.0 0.1 11 ------- null}
- -t 1.06002666666667 -s 1 -d 0 -p cbr -e 536 -c 0 -i 11 -a 0 -x {3.0 0.1 11 ------- null}
h -t 1.06002666666667 -s 1 -d 0 -p cbr -e 536 -c 0 -i 11 -a 0 -x {3.0 0.1 -1 ------- null}
+ -t 1.060032 -s 3 -d 1 -p cbr -e 536 -c 0 -i 14 -a 0 -x {3.0 0.1 14 ------- null}
- -t 1.060032 -s 3 -d 1 -p cbr -e 536 -c 0 -i 14 -a 0 -x {3.0 0.1 14 ------- null}
h -t 1.060032 -s 3 -d 1 -p cbr -e 536 -c 0 -i 14 -a 0 -x {3.0 0.1 -1 ------- null}
r -t 1.06430933333333 -s 1 -d 0 -p cbr -e 536 -c 0 -i 9 -a 0 -x {3.0 0.1 9 ------- null}
r -t 1.06431466666667 -s 3 -d 1 -p cbr -e 536 -c 0 -i 12 -a 0 -x {3.0 0.1 12 ------- null}
+ -t 1.06431466666667 -s 1 -d 0 -p cbr -e 536 -c 0 -i 12 -a 0 -x {3.0 0.1 12 ------- null}
- -t 1.06431466666667 -s 1 -d 0 -p cbr -e 536 -c 0 -i 12 -a 0 -x {3.0 0.1 12 ------- null}
h -t 1.06431466666667 -s 1 -d 0 -p cbr -e 536 -c 0 -i 12 -a 0 -x {3.0 0.1 -1 ------- null}
+ -t 1.06432 -s 3 -d 1 -p cbr -e 536 -c 0 -i 15 -a 0 -x {3.0 0.1 15 ------- null}
- -t 1.06432 -s 3 -d 1 -p cbr -e 536 -c 0 -i 15 -a 0 -x {3.0 0.1 15 ------- null}
h -t 1.06432 -s 3 -d 1 -p cbr -e 536 -c 0 -i 15 -a 0 -x {3.0 0.1 -1 ------- null}
r -t 1.06859733333333 -s 1 -d 0 -p cbr -e 536 -c 0 -i 10 -a 0 -x {3.0 0.1 10 ------- null}
r -t 1.06860266666667 -s 3 -d 1 -p cbr -e 536 -c 0 -i 13 -a 0 -x {3.0 0.1 13 ------- null}
+ -t 1.06860266666667 -s 1 -d 0 -p cbr -e 536 -c 0 -i 13 -a 0 -x {3.0 0.1 13 ------- null}
- -t 1.06860266666667 -s 1 -d 0 -p cbr -e 536 -c 0 -i 13 -a 0 -x {3.0 0.1 13 ------- null}
h -t 1.06860266666667 -s 1 -d 0 -p cbr -e 536 -c 0 -i 13 -a 0 -x {3.0 0.1 -1 ------- null}
+ -t 1.068608 -s 3 -d 1 -p cbr -e 536 -c 0 -i 16 -a 0 -x {3.0 0.1 16 ------- null}
- -t 1.068608 -s 3 -d 1 -p cbr -e 536 -c 0 -i 16 -a 0 -x {3.0 0.1 16 ------- null}
h -t 1.068608 -s 3 -d 1 -p cbr -e 536 -c 0 -i 16 -a 0 -x {3.0 0.1 -1 ------- null}
r -t 1.07288533333333 -s 1 -d 0 -p cbr -e 536 -c 0 -i 11 -a 0 -x {3.0 0.1 11 ------- null}
r -t 1.07289066666667 -s 3 -d 1 -p cbr -e 536 -c 0 -i 14 -a 0 -x {3.0 0.1 14 ------- null}
+ -t 1.07289066666667 -s 1 -d 0 -p cbr -e 536 -c 0 -i 14 -a 0 -x {3.0 0.1 14 ------- null}
- -t 1.07289066666667 -s 1 -d 0 -p cbr -e 536 -c 0 -i 14 -a 0 -x {3.0 0.1 14 ------- null}
h -t 1.07289066666667 -s 1 -d 0 -p cbr -e 536 -c 0 -i 14 -a 0 -x {3.0 0.1 -1 ------- null}
+ -t 1.072896 -s 3 -d 1 -p cbr -e 536 -c 0 -i 17 -a 0 -x {3.0 0.1 17 ------- null}
- -t 1.072896 -s 3 -d 1 -p cbr -e 536 -c 0 -i 17 -a 0 -x {3.0 0.1 17 ------- null}
h -t 1.072896 -s 3 -d 1 -p cbr -e 536 -c 0 -i 17 -a 0 -x {3.0 0.1 -1 ------- null}
r -t 1.07717333333333 -s 1 -d 0 -p cbr -e 536 -c 0 -i 12 -a 0 -x {3.0 0.1 12 ------- null}
r -t 1.07717866666667 -s 3 -d 1 -p cbr -e 536 -c 0 -i 15 -a 0 -x {3.0 0.1 15 ------- null}
+ -t 1.07717866666667 -s 1 -d 0 -p cbr -e 536 -c 0 -i 15 -a 0 -x {3.0 0.1 15 ------- null}
- -t 1.07717866666667 -s 1 -d 0 -p cbr -e 536 -c 0 -i 15 -a 0 -x {3.0 0.1 15 ------- null}
h -t 1.07717866666667 -s 1 -d 0 -p cbr -e 536 -c 0 -i 15 -a 0 -x {3.0 0.1 -1 ------- null}
+ -t 1.077184 -s 3 -d 1 -p cbr -e 536 -c 0 -i 18 -a 0 -x {3.0 0.1 18 ------- null}
- -t 1.077184 -s 3 -d 1 -p cbr -e 536 -c 0 -i 18 -a 0 -x {3.0 0.1 18 ------- null}
h -t 1.077184 -s 3 -d 1 -p cbr -e 536 -c 0 -i 18 -a 0 -x {3.0 0.1 -1 ------- null}
r -t 1.08146133333333 -s 1 -d 0 -p cbr -e 536 -c 0 -i 13 -a 0 -x {3.0 0.1 13 ------- null}
r -t 1.08146666666667 -s 3 -d 1 -p cbr -e 536 -c 0 -i 16 -a 0 -x {3.0 0.1 16 ------- null}
+ -t 1.08146666666667 -s 1 -d 0 -p cbr -e 536 -c 0 -i 16 -a 0 -x {3.0 0.1 16 ------- null}
- -t 1.08146666666667 -s 1 -d 0 -p cbr -e 536 -c 0 -i 16 -a 0 -x {3.0 0.1 16 ------- null}
h -t 1.08146666666667 -s 1 -d 0 -p cbr -e 536 -c 0 -i 16 -a 0 -x {3.0 0.1 -1 ------- null}
+ -t 1.081472 -s 3 -d 1 -p cbr -e 536 -c 0 -i 19 -a 0 -x {3.0 0.1 19 ------- null}
- -t 1.081472 -s 3 -d 1 -p cbr -e 536 -c 0 -i 19 -a 0 -x {3.0 0.1 19 ------- null}
h -t 1.081472 -s 3 -d 1 -p cbr -e 536 -c 0 -i 19 -a 0 -x {3.0 0.1 -1 ------- null}
r -t 1.08574933333333 -s 1 -d 0 -p cbr -e 536 -c 0 -i 14 -a 0 -x {3.0 0.1 14 ------- null}
r -t 1.08575466666667 -s 3 -d 1 -p cbr -e 536 -c 0 -i 17 -a 0 -x {3.0 0.1 17 ------- null}
+ -t 1.08575466666667 -s 1 -d 0 -p cbr -e 536 -c 0 -i 17 -a 0 -x {3.0 0.1 17 ------- null}
- -t 1.08575466666667 -s 1 -d 0 -p cbr -e 536 -c 0 -i 17 -a 0 -x {3.0 0.1 17 ------- null}
h -t 1.08575466666667 -s 1 -d 0 -p cbr -e 536 -c 0 -i 17 -a 0 -x {3.0 0.1 -1 ------- null}
+ -t 1.08576 -s 3 -d 1 -p cbr -e 536 -c 0 -i 20 -a 0 -x {3.0 0.1 20 ------- null}
- -t 1.08576 -s 3 -d 1 -p cbr -e 536 -c 0 -i 20 -a 0 -x {3.0 0.1 20 ------- null}
h -t 1.08576 -s 3 -d 1 -p cbr -e 536 -c 0 -i 20 -a 0 -x {3.0 0.1 -1 ------- null}
r -t 1.09003733333333 -s 1 -d 0 -p cbr -e 536 -c 0 -i 15 -a 0 -x {3.0 0.1 15 ------- null}
r -t 1.09004266666667 -s 3 -d 1 -p cbr -e 536 -c 0 -i 18 -a 0 -x {3.0 0.1 18 ------- null}
+ -t 1.09004266666667 -s 1 -d 0 -p cbr -e 536 -c 0 -i 18 -a 0 -x {3.0 0.1 18 ------- null}
- -t 1.09004266666667 -s 1 -d 0 -p cbr -e 536 -c 0 -i 18 -a 0 -x {3.0 0.1 18 ------- null}
h -t 1.09004266666667 -s 1 -d 0 -p cbr -e 536 -c 0 -i 18 -a 0 -x {3.0 0.1 -1 ------- null}
+ -t 1.090048 -s 3 -d 1 -p cbr -e 536 -c 0 -i 21 -a 0 -x {3.0 0.1 21 ------- null}
- -t 1.090048 -s 3 -d 1 -p cbr -e 536 -c 0 -i 21 -a 0 -x {3.0 0.1 21 ------- null}
h -t 1.090048 -s 3 -d 1 -p cbr -e 536 -c 0 -i 21 -a 0 -x {3.0 0.1 -1 ------- null}
r -t 1.09432533333333 -s 1 -d 0 -p cbr -e 536 -c 0 -i 16 -a 0 -x {3.0 0.1 16 ------- null}
r -t 1.09433066666667 -s 3 -d 1 -p cbr -e 536 -c 0 -i 19 -a 0 -x {3.0 0.1 19 ------- null}
+ -t 1.09433066666667 -s 1 -d 0 -p cbr -e 536 -c 0 -i 19 -a 0 -x {3.0 0.1 19 ------- null}
- -t 1.09433066666667 -s 1 -d 0 -p cbr -e 536 -c 0 -i 19 -a 0 -x {3.0 0.1 19 ------- null}
h -t 1.09433066666667 -s 1 -d 0 -p cbr -e 536 -c 0 -i 19 -a 0 -x {3.0 0.1 -1 ------- null}
+ -t 1.094336 -s 3 -d 1 -p cbr -e 536 -c 0 -i 22 -a 0 -x {3.0 0.1 22 ------- null}
- -t 1.094336 -s 3 -d 1 -p cbr -e 536 -c 0 -i 22 -a 0 -x {3.0 0.1 22 ------- null}
h -t 1.094336 -s 3 -d 1 -p cbr -e 536 -c 0 -i 22 -a 0 -x {3.0 0.1 -1 ------- null}
r -t 1.09861333333333 -s 1 -d 0 -p cbr -e 536 -c 0 -i 17 -a 0 -x {3.0 0.1 17 ------- null}
r -t 1.09861866666667 -s 3 -d 1 -p cbr -e 536 -c 0 -i 20 -a 0 -x {3.0 0.1 20 ------- null}
+ -t 1.09861866666667 -s 1 -d 0 -p cbr -e 536 -c 0 -i 20 -a 0 -x {3.0 0.1 20 ------- null}
- -t 1.09861866666667 -s 1 -d 0 -p cbr -e 536 -c 0 -i 20 -a 0 -x {3.0 0.1 20 ------- null}
h -t 1.09861866666667 -s 1 -d 0 -p cbr -e 536 -c 0 -i 20 -a 0 -x {3.0 0.1 -1 ------- null}
+ -t 1.098624 -s 3 -d 1 -p cbr -e 536 -c 0 -i 23 -a 0 -x {3.0 0.1 23 ------- null}
- -t 1.098624 -s 3 -d 1 -p cbr -e 536 -c 0 -i 23 -a 0 -x {3.0 0.1 23 ------- null}
h -t 1.098624 -s 3 -d 1 -p cbr -e 536 -c 0 -i 23 -a 0 -x {3.0 0.1 -1 ------- null}
+ -t 1.1 -s 0 -d 1 -p cbr -e 536 -c 1 -i 24 -a 1 -x {0.0 2.0 0 ------- null}
- -t 1.1 -s 0 -d 1 -p cbr -e 536 -c 1 -i 24 -a 1 -x {0.0 2.0 0 ------- null}
h -t 1.1 -s 0 -d 1 -p cbr -e 536 -c 1 -i 24 -a 1 -x {0.0 2.0 -1 ------- null}
r -t 1.10290133333333 -s 1 -d 0 -p cbr -e 536 -c 0 -i 18 -a 0 -x {3.0 0.1 18 ------- null}
r -t 1.10290666666667 -s 3 -d 1 -p cbr -e 536 -c 0 -i 21 -a 0 -x {3.0 0.1 21 ------- null}
+ -t 1.10290666666667 -s 1 -d 0 -p cbr -e 536 -c 0 -i 21 -a 0 -x {3.0 0.1 21 ------- null}
- -t 1.10290666666667 -s 1 -d 0 -p cbr -e 536 -c 0 -i 21 -a 0 -x {3.0 0.1 21 ------- null}
h -t 1.10290666666667 -s 1 -d 0 -p cbr -e 536 -c 0 -i 21 -a 0 -x {3.0 0.1 -1 ------- null}
+ -t 1.102912 -s 3 -d 1 -p cbr -e 536 -c 0 -i 25 -a 0 -x {3.0 0.1 24 ------- null}
- -t 1.102912 -s 3 -d 1 -p cbr -e 536 -c 0 -i 25 -a 0 -x {3.0 0.1 24 ------- null}
h -t 1.102912 -s 3 -d 1 -p cbr -e 536 -c 0 -i 25 -a 0 -x {3.0 0.1 -1 ------- null}
+ -t 1.104288 -s 0 -d 1 -p cbr -e 536 -c 1 -i 26 -a 1 -x {0.0 2.0 1 ------- null}
- -t 1.104288 -s 0 -d 1 -p cbr -e 536 -c 1 -i 26 -a 1 -x {0.0 2.0 1 ------- null}
h -t 1.104288 -s 0 -d 1 -p cbr -e 536 -c 1 -i 26 -a 1 -x {0.0 2.0 -1 ------- null}
r -t 1.10718933333333 -s 1 -d 0 -p cbr -e 536 -c 0 -i 19 -a 0 -x {3.0 0.1 19 ------- null}
r -t 1.10719466666667 -s 3 -d 1 -p cbr -e 536 -c 0 -i 22 -a 0 -x {3.0 0.1 22 ------- null}
+ -t 1.10719466666667 -s 1 -d 0 -p cbr -e 536 -c 0 -i 22 -a 0 -x {3.0 0.1 22 ------- null}
- -t 1.10719466666667 -s 1 -d 0 -p cbr -e 536 -c 0 -i 22 -a 0 -x {3.0 0.1 22 ------- null}
h -t 1.10719466666667 -s 1 -d 0 -p cbr -e 536 -c 0 -i 22 -a 0 -x {3.0 0.1 -1 ------- null}
+ -t 1.1072 -s 3 -d 1 -p cbr -e 536 -c 0 -i 27 -a 0 -x {3.0 0.1 25 ------- null}
- -t 1.1072 -s 3 -d 1 -p cbr -e 536 -c 0 -i 27 -a 0 -x {3.0 0.1 25 ------- null}
h -t 1.1072 -s 3 -d 1 -p cbr -e 536 -c 0 -i 27 -a 0 -x {3.0 0.1 -1 ------- null}
+ -t 1.108576 -s 0 -d 1 -p cbr -e 536 -c 1 -i 28 -a 1 -x {0.0 2.0 2 ------- null}
- -t 1.108576 -s 0 -d 1 -p cbr -e 536 -c 1 -i 28 -a 1 -x {0.0 2.0 2 ------- null}
h -t 1.108576 -s 0 -d 1 -p cbr -e 536 -c 1 -i 28 -a 1 -x {0.0 2.0 -1 ------- null}
r -t 1.11147733333333 -s 1 -d 0 -p cbr -e 536 -c 0 -i 20 -a 0 -x {3.0 0.1 20 ------- null}
r -t 1.11148266666667 -s 3 -d 1 -p cbr -e 536 -c 0 -i 23 -a 0 -x {3.0 0.1 23 ------- null}
+ -t 1.11148266666667 -s 1 -d 0 -p cbr -e 536 -c 0 -i 23 -a 0 -x {3.0 0.1 23 ------- null}
- -t 1.11148266666667 -s 1 -d 0 -p cbr -e 536 -c 0 -i 23 -a 0 -x {3.0 0.1 23 ------- null}
h -t 1.11148266666667 -s 1 -d 0 -p cbr -e 536 -c 0 -i 23 -a 0 -x {3.0 0.1 -1 ------- null}
+ -t 1.111488 -s 3 -d 1 -p cbr -e 536 -c 0 -i 29 -a 0 -x {3.0 0.1 26 ------- null}
- -t 1.111488 -s 3 -d 1 -p cbr -e 536 -c 0 -i 29 -a 0 -x {3.0 0.1 26 ------- null}
h -t 1.111488 -s 3 -d 1 -p cbr -e 536 -c 0 -i 29 -a 0 -x {3.0 0.1 -1 ------- null}
r -t 1.11285866666667 -s 0 -d 1 -p cbr -e 536 -c 1 -i 24 -a 1 -x {0.0 2.0 0 ------- null}
+ -t 1.11285866666667 -s 1 -d 2 -p cbr -e 536 -c 1 -i 24 -a 1 -x {0.0 2.0 0 ------- null}
- -t 1.11285866666667 -s 1 -d 2 -p cbr -e 536 -c 1 -i 24 -a 1 -x {0.0 2.0 0 ------- null}
h -t 1.11285866666667 -s 1 -d 2 -p cbr -e 536 -c 1 -i 24 -a 1 -x {0.0 2.0 -1 ------- null}
+ -t 1.112864 -s 0 -d 1 -p cbr -e 536 -c 1 -i 30 -a 1 -x {0.0 2.0 3 ------- null}
- -t 1.112864 -s 0 -d 1 -p cbr -e 536 -c 1 -i 30 -a 1 -x {0.0 2.0 3 ------- null}
h -t 1.112864 -s 0 -d 1 -p cbr -e 536 -c 1 -i 30 -a 1 -x {0.0 2.0 -1 ------- null}
r -t 1.11576533333333 -s 1 -d 0 -p cbr -e 536 -c 0 -i 21 -a 0 -x {3.0 0.1 21 ------- null}
r -t 1.11577066666667 -s 3 -d 1 -p cbr -e 536 -c 0 -i 25 -a 0 -x {3.0 0.1 24 ------- null}
+ -t 1.11577066666667 -s 1 -d 0 -p cbr -e 536 -c 0 -i 25 -a 0 -x {3.0 0.1 24 ------- null}
- -t 1.11577066666667 -s 1 -d 0 -p cbr -e 536 -c 0 -i 25 -a 0 -x {3.0 0.1 24 ------- null}
h -t 1.11577066666667 -s 1 -d 0 -p cbr -e 536 -c 0 -i 25 -a 0 -x {3.0 0.1 -1 ------- null}
+ -t 1.115776 -s 3 -d 1 -p cbr -e 536 -c 0 -i 31 -a 0 -x {3.0 0.1 27 ------- null}
- -t 1.115776 -s 3 -d 1 -p cbr -e 536 -c 0 -i 31 -a 0 -x {3.0 0.1 27 ------- null}
h -t 1.115776 -s 3 -d 1 -p cbr -e 536 -c 0 -i 31 -a 0 -x {3.0 0.1 -1 ------- null}
r -t 1.11714666666667 -s 0 -d 1 -p cbr -e 536 -c 1 -i 26 -a 1 -x {0.0 2.0 1 ------- null}
+ -t 1.11714666666667 -s 1 -d 2 -p cbr -e 536 -c 1 -i 26 -a 1 -x {0.0 2.0 1 ------- null}
- -t 1.11714666666667 -s 1 -d 2 -p cbr -e 536 -c 1 -i 26 -a 1 -x {0.0 2.0 1 ------- null}
h -t 1.11714666666667 -s 1 -d 2 -p cbr -e 536 -c 1 -i 26 -a 1 -x {0.0 2.0 -1 ------- null}
+ -t 1.117152 -s 0 -d 1 -p cbr -e 536 -c 1 -i 32 -a 1 -x {0.0 2.0 4 ------- null}
- -t 1.117152 -s 0 -d 1 -p cbr -e 536 -c 1 -i 32 -a 1 -x {0.0 2.0 4 ------- null}
h -t 1.117152 -s 0 -d 1 -p cbr -e 536 -c 1 -i 32 -a 1 -x {0.0 2.0 -1 ------- null}
r -t 1.12005333333333 -s 1 -d 0 -p cbr -e 536 -c 0 -i 22 -a 0 -x {3.0 0.1 22 ------- null}
r -t 1.12005866666667 -s 3 -d 1 -p cbr -e 536 -c 0 -i 27 -a 0 -x {3.0 0.1 25 ------- null}
+ -t 1.12005866666667 -s 1 -d 0 -p cbr -e 536 -c 0 -i 27 -a 0 -x {3.0 0.1 25 ------- null}
- -t 1.12005866666667 -s 1 -d 0 -p cbr -e 536 -c 0 -i 27 -a 0 -x {3.0 0.1 25 ------- null}
h -t 1.12005866666667 -s 1 -d 0 -p cbr -e 536 -c 0 -i 27 -a 0 -x {3.0 0.1 -1 ------- null}
+ -t 1.120064 -s 3 -d 1 -p cbr -e 536 -c 0 -i 33 -a 0 -x {3.0 0.1 28 ------- null}
- -t 1.120064 -s 3 -d 1 -p cbr -e 536 -c 0 -i 33 -a 0 -x {3.0 0.1 28 ------- null}
h -t 1.120064 -s 3 -d 1 -p cbr -e 536 -c 0 -i 33 -a 0 -x {3.0 0.1 -1 ------- null}
r -t 1.12143466666667 -s 0 -d 1 -p cbr -e 536 -c 1 -i 28 -a 1 -x {0.0 2.0 2 ------- null}
+ -t 1.12143466666667 -s 1 -d 2 -p cbr -e 536 -c 1 -i 28 -a 1 -x {0.0 2.0 2 ------- null}
- -t 1.12143466666667 -s 1 -d 2 -p cbr -e 536 -c 1 -i 28 -a 1 -x {0.0 2.0 2 ------- null}
h -t 1.12143466666667 -s 1 -d 2 -p cbr -e 536 -c 1 -i 28 -a 1 -x {0.0 2.0 -1 ------- null}
+ -t 1.12144 -s 0 -d 1 -p cbr -e 536 -c 1 -i 34 -a 1 -x {0.0 2.0 5 ------- null}
- -t 1.12144 -s 0 -d 1 -p cbr -e 536 -c 1 -i 34 -a 1 -x {0.0 2.0 5 ------- null}
h -t 1.12144 -s 0 -d 1 -p cbr -e 536 -c 1 -i 34 -a 1 -x {0.0 2.0 -1 ------- null}
r -t 1.12434133333333 -s 1 -d 0 -p cbr -e 536 -c 0 -i 23 -a 0 -x {3.0 0.1 23 ------- null}
r -t 1.12434666666667 -s 3 -d 1 -p cbr -e 536 -c 0 -i 29 -a 0 -x {3.0 0.1 26 ------- null}
+ -t 1.12434666666667 -s 1 -d 0 -p cbr -e 536 -c 0 -i 29 -a 0 -x {3.0 0.1 26 ------- null}
- -t 1.12434666666667 -s 1 -d 0 -p cbr -e 536 -c 0 -i 29 -a 0 -x {3.0 0.1 26 ------- null}
h -t 1.12434666666667 -s 1 -d 0 -p cbr -e 536 -c 0 -i 29 -a 0 -x {3.0 0.1 -1 ------- null}
+ -t 1.124352 -s 3 -d 1 -p cbr -e 536 -c 0 -i 35 -a 0 -x {3.0 0.1 29 ------- null}
- -t 1.124352 -s 3 -d 1 -p cbr -e 536 -c 0 -i 35 -a 0 -x {3.0 0.1 29 ------- null}
h -t 1.124352 -s 3 -d 1 -p cbr -e 536 -c 0 -i 35 -a 0 -x {3.0 0.1 -1 ------- null}
r -t 1.12571733333333 -s 1 -d 2 -p cbr -e 536 -c 1 -i 24 -a 1 -x {0.0 2.0 0 ------- null}
r -t 1.12572266666667 -s 0 -d 1 -p cbr -e 536 -c 1 -i 30 -a 1 -x {0.0 2.0 3 ------- null}
+ -t 1.12572266666667 -s 1 -d 2 -p cbr -e 536 -c 1 -i 30 -a 1 -x {0.0 2.0 3 ------- null}
- -t 1.12572266666667 -s 1 -d 2 -p cbr -e 536 -c 1 -i 30 -a 1 -x {0.0 2.0 3 ------- null}
h -t 1.12572266666667 -s 1 -d 2 -p cbr -e 536 -c 1 -i 30 -a 1 -x {0.0 2.0 -1 ------- null}
+ -t 1.125728 -s 0 -d 1 -p cbr -e 536 -c 1 -i 36 -a 1 -x {0.0 2.0 6 ------- null}
- -t 1.125728 -s 0 -d 1 -p cbr -e 536 -c 1 -i 36 -a 1 -x {0.0 2.0 6 ------- null}
h -t 1.125728 -s 0 -d 1 -p cbr -e 536 -c 1 -i 36 -a 1 -x {0.0 2.0 -1 ------- null}
r -t 1.12862933333333 -s 1 -d 0 -p cbr -e 536 -c 0 -i 25 -a 0 -x {3.0 0.1 24 ------- null}
r -t 1.12863466666667 -s 3 -d 1 -p cbr -e 536 -c 0 -i 31 -a 0 -x {3.0 0.1 27 ------- null}
+ -t 1.12863466666667 -s 1 -d 0 -p cbr -e 536 -c 0 -i 31 -a 0 -x {3.0 0.1 27 ------- null}
- -t 1.12863466666667 -s 1 -d 0 -p cbr -e 536 -c 0 -i 31 -a 0 -x {3.0 0.1 27 ------- null}
h -t 1.12863466666667 -s 1 -d 0 -p cbr -e 536 -c 0 -i 31 -a 0 -x {3.0 0.1 -1 ------- null}
+ -t 1.12864 -s 3 -d 1 -p cbr -e 536 -c 0 -i 37 -a 0 -x {3.0 0.1 30 ------- null}
- -t 1.12864 -s 3 -d 1 -p cbr -e 536 -c 0 -i 37 -a 0 -x {3.0 0.1 30 ------- null}
h -t 1.12864 -s 3 -d 1 -p cbr -e 536 -c 0 -i 37 -a 0 -x {3.0 0.1 -1 ------- null}
r -t 1.13000533333333 -s 1 -d 2 -p cbr -e 536 -c 1 -i 26 -a 1 -x {0.0 2.0 1 ------- null}
r -t 1.13001066666667 -s 0 -d 1 -p cbr -e 536 -c 1 -i 32 -a 1 -x {0.0 2.0 4 ------- null}
+ -t 1.13001066666667 -s 1 -d 2 -p cbr -e 536 -c 1 -i 32 -a 1 -x {0.0 2.0 4 ------- null}
- -t 1.13001066666667 -s 1 -d 2 -p cbr -e 536 -c 1 -i 32 -a 1 -x {0.0 2.0 4 ------- null}
h -t 1.13001066666667 -s 1 -d 2 -p cbr -e 536 -c 1 -i 32 -a 1 -x {0.0 2.0 -1 ------- null}
+ -t 1.130016 -s 0 -d 1 -p cbr -e 536 -c 1 -i 38 -a 1 -x {0.0 2.0 7 ------- null}
- -t 1.130016 -s 0 -d 1 -p cbr -e 536 -c 1 -i 38 -a 1 -x {0.0 2.0 7 ------- null}
h -t 1.130016 -s 0 -d 1 -p cbr -e 536 -c 1 -i 38 -a 1 -x {0.0 2.0 -1 ------- null}
r -t 1.13291733333333 -s 1 -d 0 -p cbr -e 536 -c 0 -i 27 -a 0 -x {3.0 0.1 25 ------- null}
r -t 1.13292266666667 -s 3 -d 1 -p cbr -e 536 -c 0 -i 33 -a 0 -x {3.0 0.1 28 ------- null}
+ -t 1.13292266666667 -s 1 -d 0 -p cbr -e 536 -c 0 -i 33 -a 0 -x {3.0 0.1 28 ------- null}
- -t 1.13292266666667 -s 1 -d 0 -p cbr -e 536 -c 0 -i 33 -a 0 -x {3.0 0.1 28 ------- null}
h -t 1.13292266666667 -s 1 -d 0 -p cbr -e 536 -c 0 -i 33 -a 0 -x {3.0 0.1 -1 ------- null}
+ -t 1.132928 -s 3 -d 1 -p cbr -e 536 -c 0 -i 39 -a 0 -x {3.0 0.1 31 ------- null}
- -t 1.132928 -s 3 -d 1 -p cbr -e 536 -c 0 -i 39 -a 0 -x {3.0 0.1 31 ------- null}
h -t 1.132928 -s 3 -d 1 -p cbr -e 536 -c 0 -i 39 -a 0 -x {3.0 0.1 -1 ------- null}
r -t 1.13429333333333 -s 1 -d 2 -p cbr -e 536 -c 1 -i 28 -a 1 -x {0.0 2.0 2 ------- null}
r -t 1.13429866666667 -s 0 -d 1 -p cbr -e 536 -c 1 -i 34 -a 1 -x {0.0 2.0 5 ------- null}
+ -t 1.13429866666667 -s 1 -d 2 -p cbr -e 536 -c 1 -i 34 -a 1 -x {0.0 2.0 5 ------- null}
- -t 1.13429866666667 -s 1 -d 2 -p cbr -e 536 -c 1 -i 34 -a 1 -x {0.0 2.0 5 ------- null}
h -t 1.13429866666667 -s 1 -d 2 -p cbr -e 536 -c 1 -i 34 -a 1 -x {0.0 2.0 -1 ------- null}
+ -t 1.134304 -s 0 -d 1 -p cbr -e 536 -c 1 -i 40 -a 1 -x {0.0 2.0 8 ------- null}
- -t 1.134304 -s 0 -d 1 -p cbr -e 536 -c 1 -i 40 -a 1 -x {0.0 2.0 8 ------- null}
h -t 1.134304 -s 0 -d 1 -p cbr -e 536 -c 1 -i 40 -a 1 -x {0.0 2.0 -1 ------- null}
r -t 1.13720533333333 -s 1 -d 0 -p cbr -e 536 -c 0 -i 29 -a 0 -x {3.0 0.1 26 ------- null}
r -t 1.13721066666667 -s 3 -d 1 -p cbr -e 536 -c 0 -i 35 -a 0 -x {3.0 0.1 29 ------- null}
+ -t 1.13721066666667 -s 1 -d 0 -p cbr -e 536 -c 0 -i 35 -a 0 -x {3.0 0.1 29 ------- null}
- -t 1.13721066666667 -s 1 -d 0 -p cbr -e 536 -c 0 -i 35 -a 0 -x {3.0 0.1 29 ------- null}
h -t 1.13721066666667 -s 1 -d 0 -p cbr -e 536 -c 0 -i 35 -a 0 -x {3.0 0.1 -1 ------- null}
+ -t 1.137216 -s 3 -d 1 -p cbr -e 536 -c 0 -i 41 -a 0 -x {3.0 0.1 32 ------- null}
- -t 1.137216 -s 3 -d 1 -p cbr -e 536 -c 0 -i 41 -a 0 -x {3.0 0.1 32 ------- null}
h -t 1.137216 -s 3 -d 1 -p cbr -e 536 -c 0 -i 41 -a 0 -x {3.0 0.1 -1 ------- null}
r -t 1.13858133333333 -s 1 -d 2 -p cbr -e 536 -c 1 -i 30 -a 1 -x {0.0 2.0 3 ------- null}
r -t 1.13858666666667 -s 0 -d 1 -p cbr -e 536 -c 1 -i 36 -a 1 -x {0.0 2.0 6 ------- null}
+ -t 1.13858666666667 -s 1 -d 2 -p cbr -e 536 -c 1 -i 36 -a 1 -x {0.0 2.0 6 ------- null}
- -t 1.13858666666667 -s 1 -d 2 -p cbr -e 536 -c 1 -i 36 -a 1 -x {0.0 2.0 6 ------- null}
h -t 1.13858666666667 -s 1 -d 2 -p cbr -e 536 -c 1 -i 36 -a 1 -x {0.0 2.0 -1 ------- null}
+ -t 1.138592 -s 0 -d 1 -p cbr -e 536 -c 1 -i 42 -a 1 -x {0.0 2.0 9 ------- null}
- -t 1.138592 -s 0 -d 1 -p cbr -e 536 -c 1 -i 42 -a 1 -x {0.0 2.0 9 ------- null}
h -t 1.138592 -s 0 -d 1 -p cbr -e 536 -c 1 -i 42 -a 1 -x {0.0 2.0 -1 ------- null}
r -t 1.14149333333334 -s 1 -d 0 -p cbr -e 536 -c 0 -i 31 -a 0 -x {3.0 0.1 27 ------- null}
r -t 1.14149866666667 -s 3 -d 1 -p cbr -e 536 -c 0 -i 37 -a 0 -x {3.0 0.1 30 ------- null}
+ -t 1.14149866666667 -s 1 -d 0 -p cbr -e 536 -c 0 -i 37 -a 0 -x {3.0 0.1 30 ------- null}
- -t 1.14149866666667 -s 1 -d 0 -p cbr -e 536 -c 0 -i 37 -a 0 -x {3.0 0.1 30 ------- null}
h -t 1.14149866666667 -s 1 -d 0 -p cbr -e 536 -c 0 -i 37 -a 0 -x {3.0 0.1 -1 ------- null}
+ -t 1.141504 -s 3 -d 1 -p cbr -e 536 -c 0 -i 43 -a 0 -x {3.0 0.1 33 ------- null}
- -t 1.141504 -s 3 -d 1 -p cbr -e 536 -c 0 -i 43 -a 0 -x {3.0 0.1 33 ------- null}
h -t 1.141504 -s 3 -d 1 -p cbr -e 536 -c 0 -i 43 -a 0 -x {3.0 0.1 -1 ------- null}
r -t 1.14286933333333 -s 1 -d 2 -p cbr -e 536 -c 1 -i 32 -a 1 -x {0.0 2.0 4 ------- null}
r -t 1.14287466666667 -s 0 -d 1 -p cbr -e 536 -c 1 -i 38 -a 1 -x {0.0 2.0 7 ------- null}
+ -t 1.14287466666667 -s 1 -d 2 -p cbr -e 536 -c 1 -i 38 -a 1 -x {0.0 2.0 7 ------- null}
- -t 1.14287466666667 -s 1 -d 2 -p cbr -e 536 -c 1 -i 38 -a 1 -x {0.0 2.0 7 ------- null}
h -t 1.14287466666667 -s 1 -d 2 -p cbr -e 536 -c 1 -i 38 -a 1 -x {0.0 2.0 -1 ------- null}
+ -t 1.14288 -s 0 -d 1 -p cbr -e 536 -c 1 -i 44 -a 1 -x {0.0 2.0 10 ------- null}
- -t 1.14288 -s 0 -d 1 -p cbr -e 536 -c 1 -i 44 -a 1 -x {0.0 2.0 10 ------- null}
h -t 1.14288 -s 0 -d 1 -p cbr -e 536 -c 1 -i 44 -a 1 -x {0.0 2.0 -1 ------- null}
r -t 1.14578133333334 -s 1 -d 0 -p cbr -e 536 -c 0 -i 33 -a 0 -x {3.0 0.1 28 ------- null}
r -t 1.14578666666667 -s 3 -d 1 -p cbr -e 536 -c 0 -i 39 -a 0 -x {3.0 0.1 31 ------- null}
+ -t 1.14578666666667 -s 1 -d 0 -p cbr -e 536 -c 0 -i 39 -a 0 -x {3.0 0.1 31 ------- null}
- -t 1.14578666666667 -s 1 -d 0 -p cbr -e 536 -c 0 -i 39 -a 0 -x {3.0 0.1 31 ------- null}
h -t 1.14578666666667 -s 1 -d 0 -p cbr -e 536 -c 0 -i 39 -a 0 -x {3.0 0.1 -1 ------- null}
+ -t 1.145792 -s 3 -d 1 -p cbr -e 536 -c 0 -i 45 -a 0 -x {3.0 0.1 34 ------- null}
- -t 1.145792 -s 3 -d 1 -p cbr -e 536 -c 0 -i 45 -a 0 -x {3.0 0.1 34 ------- null}
h -t 1.145792 -s 3 -d 1 -p cbr -e 536 -c 0 -i 45 -a 0 -x {3.0 0.1 -1 ------- null}
r -t 1.14715733333333 -s 1 -d 2 -p cbr -e 536 -c 1 -i 34 -a 1 -x {0.0 2.0 5 ------- null}
r -t 1.14716266666667 -s 0 -d 1 -p cbr -e 536 -c 1 -i 40 -a 1 -x {0.0 2.0 8 ------- null}
+ -t 1.14716266666667 -s 1 -d 2 -p cbr -e 536 -c 1 -i 40 -a 1 -x {0.0 2.0 8 ------- null}
- -t 1.14716266666667 -s 1 -d 2 -p cbr -e 536 -c 1 -i 40 -a 1 -x {0.0 2.0 8 ------- null}
h -t 1.14716266666667 -s 1 -d 2 -p cbr -e 536 -c 1 -i 40 -a 1 -x {0.0 2.0 -1 ------- null}
+ -t 1.147168 -s 0 -d 1 -p cbr -e 536 -c 1 -i 46 -a 1 -x {0.0 2.0 11 ------- null}
- -t 1.147168 -s 0 -d 1 -p cbr -e 536 -c 1 -i 46 -a 1 -x {0.0 2.0 11 ------- null}