+ 0.1 4 0 cbr 536 ------- 0 4.0 5.0 0 0
- 0.1 4 0 cbr 536 ------- 0 4.0 5.0 0 0
r 0.102429 4 0 cbr 536 ------- 0 4.0 5.0 0 0
h 0.102429 0 3 cbr 536 ------- 0 4.0 5.0 0 0
+ 0.104288 4 0 cbr 536 ------- 0 4.0 5.0 1 1
- 0.104288 4 0 cbr 536 ------- 0 4.0 5.0 1 1
+ 0.104429 0 3 cbr 536 ------- 0 4.0 5.0 0 0
- 0.104429 0 3 cbr 536 ------- 0 4.0 5.0 0 0
d 0.104433 2 3 cbr 536 ------- 0 4.0 5.0 0 0
r 0.106433 3 1 cbr 536 ------- 0 4.0 5.0 0 0
+ 0.106433 1 5 cbr 536 ------- 0 4.0 5.0 0 0
- 0.106433 1 5 cbr 536 ------- 0 4.0 5.0 0 0
r 0.106717 4 0 cbr 536 ------- 0 4.0 5.0 1 1
h 0.106717 0 3 cbr 536 ------- 0 4.0 5.0 1 1
r 0.108276 1 5 cbr 536 ------- 0 4.0 5.0 0 0
+ 0.108576 4 0 cbr 536 ------- 0 4.0 5.0 2 2
- 0.108576 4 0 cbr 536 ------- 0 4.0 5.0 2 2
+ 0.108717 0 3 cbr 536 ------- 0 4.0 5.0 1 1
- 0.108717 0 3 cbr 536 ------- 0 4.0 5.0 1 1
d 0.108721 2 3 cbr 536 ------- 0 4.0 5.0 1 1
r 0.110721 3 1 cbr 536 ------- 0 4.0 5.0 1 1
+ 0.110721 1 5 cbr 536 ------- 0 4.0 5.0 1 1
- 0.110721 1 5 cbr 536 ------- 0 4.0 5.0 1 1
r 0.111005 4 0 cbr 536 ------- 0 4.0 5.0 2 2
h 0.111005 0 3 cbr 536 ------- 0 4.0 5.0 2 2
r 0.112564 1 5 cbr 536 ------- 0 4.0 5.0 1 1
+ 0.112864 4 0 cbr 536 ------- 0 4.0 5.0 3 3
- 0.112864 4 0 cbr 536 ------- 0 4.0 5.0 3 3
+ 0.113005 0 3 cbr 536 ------- 0 4.0 5.0 2 2
- 0.113005 0 3 cbr 536 ------- 0 4.0 5.0 2 2
d 0.113009 2 3 cbr 536 ------- 0 4.0 5.0 2 2
r 0.115009 3 1 cbr 536 ------- 0 4.0 5.0 2 2
+ 0.115009 1 5 cbr 536 ------- 0 4.0 5.0 2 2
- 0.115009 1 5 cbr 536 ------- 0 4.0 5.0 2 2
r 0.115293 4 0 cbr 536 ------- 0 4.0 5.0 3 3
h 0.115293 0 3 cbr 536 ------- 0 4.0 5.0 3 3
r 0.116852 1 5 cbr 536 ------- 0 4.0 5.0 2 2
+ 0.117152 4 0 cbr 536 ------- 0 4.0 5.0 4 4
- 0.117152 4 0 cbr 536 ------- 0 4.0 5.0 4 4
+ 0.117293 0 3 cbr 536 ------- 0 4.0 5.0 3 3
- 0.117293 0 3 cbr 536 ------- 0 4.0 5.0 3 3
d 0.117297 2 3 cbr 536 ------- 0 4.0 5.0 3 3
r 0.119297 3 1 cbr 536 ------- 0 4.0 5.0 3 3
+ 0.119297 1 5 cbr 536 ------- 0 4.0 5.0 3 3
- 0.119297 1 5 cbr 536 ------- 0 4.0 5.0 3 3
r 0.119581 4 0 cbr 536 ------- 0 4.0 5.0 4 4
h 0.119581 0 3 cbr 536 ------- 0 4.0 5.0 4 4
r 0.12114 1 5 cbr 536 ------- 0 4.0 5.0 3 3
+ 0.12144 4 0 cbr 536 ------- 0 4.0 5.0 5 5
- 0.12144 4 0 cbr 536 ------- 0 4.0 5.0 5 5
+ 0.121581 0 3 cbr 536 ------- 0 4.0 5.0 4 4
- 0.121581 0 3 cbr 536 ------- 0 4.0 5.0 4 4
d 0.121585 2 3 cbr 536 ------- 0 4.0 5.0 4 4
r 0.123585 3 1 cbr 536 ------- 0 4.0 5.0 4 4
+ 0.123585 1 5 cbr 536 ------- 0 4.0 5.0 4 4
- 0.123585 1 5 cbr 536 ------- 0 4.0 5.0 4 4
r 0.123869 4 0 cbr 536 ------- 0 4.0 5.0 5 5
h 0.123869 0 3 cbr 536 ------- 0 4.0 5.0 5 5
r 0.125428 1 5 cbr 536 ------- 0 4.0 5.0 4 4
+ 0.125728 4 0 cbr 536 ------- 0 4.0 5.0 6 6
- 0.125728 4 0 cbr 536 ------- 0 4.0 5.0 6 6
+ 0.125869 0 3 cbr 536 ------- 0 4.0 5.0 5 5
- 0.125869 0 3 cbr 536 ------- 0 4.0 5.0 5 5
d 0.125873 2 3 cbr 536 ------- 0 4.0 5.0 5 5
r 0.127873 3 1 cbr 536 ------- 0 4.0 5.0 5 5
+ 0.127873 1 5 cbr 536 ------- 0 4.0 5.0 5 5
- 0.127873 1 5 cbr 536 ------- 0 4.0 5.0 5 5
r 0.128157 4 0 cbr 536 ------- 0 4.0 5.0 6 6
h 0.128157 0 3 cbr 536 ------- 0 4.0 5.0 6 6
r 0.129716 1 5 cbr 536 ------- 0 4.0 5.0 5 5
+ 0.130016 4 0 cbr 536 ------- 0 4.0 5.0 7 7
- 0.130016 4 0 cbr 536 ------- 0 4.0 5.0 7 7
+ 0.130157 0 3 cbr 536 ------- 0 4.0 5.0 6 6
- 0.130157 0 3 cbr 536 ------- 0 4.0 5.0 6 6
d 0.130161 2 3 cbr 536 ------- 0 4.0 5.0 6 6
r 0.132161 3 1 cbr 536 ------- 0 4.0 5.0 6 6
+ 0.132161 1 5 cbr 536 ------- 0 4.0 5.0 6 6
- 0.132161 1 5 cbr 536 ------- 0 4.0 5.0 6 6
r 0.132445 4 0 cbr 536 ------- 0 4.0 5.0 7 7
h 0.132445 0 3 cbr 536 ------- 0 4.0 5.0 7 7
r 0.134004 1 5 cbr 536 ------- 0 4.0 5.0 6 6
+ 0.134304 4 0 cbr 536 ------- 0 4.0 5.0 8 8
- 0.134304 4 0 cbr 536 ------- 0 4.0 5.0 8 8
+ 0.134445 0 3 cbr 536 ------- 0 4.0 5.0 7 7
- 0.134445 0 3 cbr 536 ------- 0 4.0 5.0 7 7
d 0.134449 2 3 cbr 536 ------- 0 4.0 5.0 7 7
r 0.136449 3 1 cbr 536 ------- 0 4.0 5.0 7 7
+ 0.136449 1 5 cbr 536 ------- 0 4.0 5.0 7 7
- 0.136449 1 5 cbr 536 ------- 0 4.0 5.0 7 7
r 0.136733 4 0 cbr 536 ------- 0 4.0 5.0 8 8
h 0.136733 0 3 cbr 536 ------- 0 4.0 5.0 8 8
r 0.138292 1 5 cbr 536 ------- 0 4.0 5.0 7 7
+ 0.138592 4 0 cbr 536 ------- 0 4.0 5.0 9 9
- 0.138592 4 0 cbr 536 ------- 0 4.0 5.0 9 9
+ 0.138733 0 3 cbr 536 ------- 0 4.0 5.0 8 8
- 0.138733 0 3 cbr 536 ------- 0 4.0 5.0 8 8
d 0.138737 2 3 cbr 536 ------- 0 4.0 5.0 8 8
r 0.140737 3 1 cbr 536 ------- 0 4.0 5.0 8 8
+ 0.140737 1 5 cbr 536 ------- 0 4.0 5.0 8 8
- 0.140737 1 5 cbr 536 ------- 0 4.0 5.0 8 8
r 0.141021 4 0 cbr 536 ------- 0 4.0 5.0 9 9
h 0.141021 0 3 cbr 536 ------- 0 4.0 5.0 9 9
r 0.14258 1 5 cbr 536 ------- 0 4.0 5.0 8 8
+ 0.14288 4 0 cbr 536 ------- 0 4.0 5.0 10 10
- 0.14288 4 0 cbr 536 ------- 0 4.0 5.0 10 10
+ 0.143021 0 3 cbr 536 ------- 0 4.0 5.0 9 9
- 0.143021 0 3 cbr 536 ------- 0 4.0 5.0 9 9
d 0.143025 2 3 cbr 536 ------- 0 4.0 5.0 9 9
r 0.145025 3 1 cbr 536 ------- 0 4.0 5.0 9 9
+ 0.145025 1 5 cbr 536 ------- 0 4.0 5.0 9 9
- 0.145025 1 5 cbr 536 ------- 0 4.0 5.0 9 9
r 0.145309 4 0 cbr 536 ------- 0 4.0 5.0 10 10
h 0.145309 0 3 cbr 536 ------- 0 4.0 5.0 10 10
r 0.146868 1 5 cbr 536 ------- 0 4.0 5.0 9 9
+ 0.147168 4 0 cbr 536 ------- 0 4.0 5.0 11 11
- 0.147168 4 0 cbr 536 ------- 0 4.0 5.0 11 11
+ 0.147309 0 3 cbr 536 ------- 0 4.0 5.0 10 10
- 0.147309 0 3 cbr 536 ------- 0 4.0 5.0 10 10
d 0.147313 2 3 cbr 536 ------- 0 4.0 5.0 10 10
r 0.149313 3 1 cbr 536 ------- 0 4.0 5.0 10 10
+ 0.149313 1 5 cbr 536 ------- 0 4.0 5.0 10 10
- 0.149313 1 5 cbr 536 ------- 0 4.0 5.0 10 10
r 0.149597 4 0 cbr 536 ------- 0 4.0 5.0 11 11
h 0.149597 0 3 cbr 536 ------- 0 4.0 5.0 11 11
r 0.151156 1 5 cbr 536 ------- 0 4.0 5.0 10 10
+ 0.151456 4 0 cbr 536 ------- 0 4.0 5.0 12 12
- 0.151456 4 0 cbr 536 ------- 0 4.0 5.0 12 12
+ 0.151597 0 3 cbr 536 ------- 0 4.0 5.0 11 11
- 0.151597 0 3 cbr 536 ------- 0 4.0 5.0 11 11
d 0.151601 2 3 cbr 536 ------- 0 4.0 5.0 11 11
r 0.153601 3 1 cbr 536 ------- 0 4.0 5.0 11 11
+ 0.153601 1 5 cbr 536 ------- 0 4.0 5.0 11 11
- 0.153601 1 5 cbr 536 ------- 0 4.0 5.0 11 11
r 0.153885 4 0 cbr 536 ------- 0 4.0 5.0 12 12
h 0.153885 0 3 cbr 536 ------- 0 4.0 5.0 12 12
r 0.155444 1 5 cbr 536 ------- 0 4.0 5.0 11 11
+ 0.155744 4 0 cbr 536 ------- 0 4.0 5.0 13 13
- 0.155744 4 0 cbr 536 ------- 0 4.0 5.0 13 13
+ 0.155885 0 3 cbr 536 ------- 0 4.0 5.0 12 12
- 0.155885 0 3 cbr 536 ------- 0 4.0 5.0 12 12
d 0.155889 2 3 cbr 536 ------- 0 4.0 5.0 12 12
r 0.157889 3 1 cbr 536 ------- 0 4.0 5.0 12 12
+ 0.157889 1 5 cbr 536 ------- 0 4.0 5.0 12 12
- 0.157889 1 5 cbr 536 ------- 0 4.0 5.0 12 12
r 0.158173 4 0 cbr 536 ------- 0 4.0 5.0 13 13
h 0.158173 0 3 cbr 536 ------- 0 4.0 5.0 13 13
r 0.159732 1 5 cbr 536 ------- 0 4.0 5.0 12 12
+ 0.160032 4 0 cbr 536 ------- 0 4.0 5.0 14 14
- 0.160032 4 0 cbr 536 ------- 0 4.0 5.0 14 14
+ 0.160173 0 3 cbr 536 ------- 0 4.0 5.0 13 13
- 0.160173 0 3 cbr 536 ------- 0 4.0 5.0 13 13
d 0.160177 2 3 cbr 536 ------- 0 4.0 5.0 13 13
r 0.162177 3 1 cbr 536 ------- 0 4.0 5.0 13 13
+ 0.162177 1 5 cbr 536 ------- 0 4.0 5.0 13 13
- 0.162177 1 5 cbr 536 ------- 0 4.0 5.0 13 13
r 0.162461 4 0 cbr 536 ------- 0 4.0 5.0 14 14
h 0.162461 0 3 cbr 536 ------- 0 4.0 5.0 14 14
r 0.16402 1 5 cbr 536 ------- 0 4.0 5.0 13 13
+ 0.16432 4 0 cbr 536 ------- 0 4.0 5.0 15 15
- 0.16432 4 0 cbr 536 ------- 0 4.0 5.0 15 15
+ 0.164461 0 3 cbr 536 ------- 0 4.0 5.0 14 14
- 0.164461 0 3 cbr 536 ------- 0 4.0 5.0 14 14
d 0.164465 2 3 cbr 536 ------- 0 4.0 5.0 14 14
r 0.166465 3 1 cbr 536 ------- 0 4.0 5.0 14 14
+ 0.166465 1 5 cbr 536 ------- 0 4.0 5.0 14 14
- 0.166465 1 5 cbr 536 ------- 0 4.0 5.0 14 14
r 0.166749 4 0 cbr 536 ------- 0 4.0 5.0 15 15
h 0.166749 0 3 cbr 536 ------- 0 4.0 5.0 15 15
r 0.168308 1 5 cbr 536 ------- 0 4.0 5.0 14 14
+ 0.168608 4 0 cbr 536 ------- 0 4.0 5.0 16 16
- 0.168608 4 0 cbr 536 ------- 0 4.0 5.0 16 16
+ 0.168749 0 3 cbr 536 ------- 0 4.0 5.0 15 15
- 0.168749 0 3 cbr 536 ------- 0 4.0 5.0 15 15
d 0.168753 2 3 cbr 536 ------- 0 4.0 5.0 15 15
r 0.170753 3 1 cbr 536 ------- 0 4.0 5.0 15 15
+ 0.170753 1 5 cbr 536 ------- 0 4.0 5.0 15 15
- 0.170753 1 5 cbr 536 ------- 0 4.0 5.0 15 15
r 0.171037 4 0 cbr 536 ------- 0 4.0 5.0 16 16
h 0.171037 0 3 cbr 536 ------- 0 4.0 5.0 16 16
r 0.172596 1 5 cbr 536 ------- 0 4.0 5.0 15 15
+ 0.172896 4 0 cbr 536 ------- 0 4.0 5.0 17 17
- 0.172896 4 0 cbr 536 ------- 0 4.0 5.0 17 17
+ 0.173037 0 3 cbr 536 ------- 0 4.0 5.0 16 16
- 0.173037 0 3 cbr 536 ------- 0 4.0 5.0 16 16
d 0.173041 2 3 cbr 536 ------- 0 4.0 5.0 16 16
r 0.175041 3 1 cbr 536 ------- 0 4.0 5.0 16 16
+ 0.175041 1 5 cbr 536 ------- 0 4.0 5.0 16 16
- 0.175041 1 5 cbr 536 ------- 0 4.0 5.0 16 16
r 0.175325 4 0 cbr 536 ------- 0 4.0 5.0 17 17
h 0.175325 0 3 cbr 536 ------- 0 4.0 5.0 17 17
r 0.176884 1 5 cbr 536 ------- 0 4.0 5.0 16 16
+ 0.177184 4 0 cbr 536 ------- 0 4.0 5.0 18 18
- 0.177184 4 0 cbr 536 ------- 0 4.0 5.0 18 18
+ 0.177325 0 3 cbr 536 ------- 0 4.0 5.0 17 17
- 0.177325 0 3 cbr 536 ------- 0 4.0 5.0 17 17
d 0.177329 2 3 cbr 536 ------- 0 4.0 5.0 17 17
r 0.179329 3 1 cbr 536 ------- 0 4.0 5.0 17 17
+ 0.179329 1 5 cbr 536 ------- 0 4.0 5.0 17 17
- 0.179329 1 5 cbr 536 ------- 0 4.0 5.0 17 17
r 0.179613 4 0 cbr 536 ------- 0 4.0 5.0 18 18
h 0.179613 0 3 cbr 536 ------- 0 4.0 5.0 18 18
r 0.181172 1 5 cbr 536 ------- 0 4.0 5.0 17 17
+ 0.181472 4 0 cbr 536 ------- 0 4.0 5.0 19 19
- 0.181472 4 0 cbr 536 ------- 0 4.0 5.0 19 19
+ 0.181613 0 3 cbr 536 ------- 0 4.0 5.0 18 18
- 0.181613 0 3 cbr 536 ------- 0 4.0 5.0 18 18
d 0.181617 2 3 cbr 536 ------- 0 4.0 5.0 18 18
r 0.183617 3 1 cbr 536 ------- 0 4.0 5.0 18 18
+ 0.183617 1 5 cbr 536 ------- 0 4.0 5.0 18 18
- 0.183617 1 5 cbr 536 ------- 0 4.0 5.0 18 18
r 0.183901 4 0 cbr 536 ------- 0 4.0 5.0 19 19
h 0.183901 0 3 cbr 536 ------- 0 4.0 5.0 19 19
r 0.18546 1 5 cbr 536 ------- 0 4.0 5.0 18 18
+ 0.18576 4 0 cbr 536 ------- 0 4.0 5.0 20 20
- 0.18576 4 0 cbr 536 ------- 0 4.0 5.0 20 20
+ 0.185901 0 3 cbr 536 ------- 0 4.0 5.0 19 19
- 0.185901 0 3 cbr 536 ------- 0 4.0 5.0 19 19
d 0.185905 2 3 cbr 536 ------- 0 4.0 5.0 19 19
r 0.187905 3 1 cbr 536 ------- 0 4.0 5.0 19 19
+ 0.187905 1 5 cbr 536 ------- 0 4.0 5.0 19 19
- 0.187905 1 5 cbr 536 ------- 0 4.0 5.0 19 19
r 0.188189 4 0 cbr 536 ------- 0 4.0 5.0 20 20
h 0.188189 0 3 cbr 536 ------- 0 4.0 5.0 20 20
r 0.189748 1 5 cbr 536 ------- 0 4.0 5.0 19 19
+ 0.190048 4 0 cbr 536 ------- 0 4.0 5.0 21 21
- 0.190048 4 0 cbr 536 ------- 0 4.0 5.0 21 21
+ 0.190189 0 3 cbr 536 ------- 0 4.0 5.0 20 20
- 0.190189 0 3 cbr 536 ------- 0 4.0 5.0 20 20
d 0.190193 2 3 cbr 536 ------- 0 4.0 5.0 20 20
r 0.192193 3 1 cbr 536 ------- 0 4.0 5.0 20 20
+ 0.192193 1 5 cbr 536 ------- 0 4.0 5.0 20 20
- 0.192193 1 5 cbr 536 ------- 0 4.0 5.0 20 20
r 0.192477 4 0 cbr 536 ------- 0 4.0 5.0 21 21
h 0.192477 0 3 cbr 536 ------- 0 4.0 5.0 21 21
r 0.194036 1 5 cbr 536 ------- 0 4.0 5.0 20 20
+ 0.194336 4 0 cbr 536 ------- 0 4.0 5.0 22 22
- 0.194336 4 0 cbr 536 ------- 0 4.0 5.0 22 22
+ 0.194477 0 3 cbr 536 ------- 0 4.0 5.0 21 21
- 0.194477 0 3 cbr 536 ------- 0 4.0 5.0 21 21
d 0.194481 2 3 cbr 536 ------- 0 4.0 5.0 21 21
r 0.196481 3 1 cbr 536 ------- 0 4.0 5.0 21 21
+ 0.196481 1 5 cbr 536 ------- 0 4.0 5.0 21 21
- 0.196481 1 5 cbr 536 ------- 0 4.0 5.0 21 21
r 0.196765 4 0 cbr 536 ------- 0 4.0 5.0 22 22
h 0.196765 0 3 cbr 536 ------- 0 4.0 5.0 22 22
r 0.198324 1 5 cbr 536 ------- 0 4.0 5.0 21 21
+ 0.198624 4 0 cbr 536 ------- 0 4.0 5.0 23 23
- 0.198624 4 0 cbr 536 ------- 0 4.0 5.0 23 23
+ 0.198765 0 3 cbr 536 ------- 0 4.0 5.0 22 22
- 0.198765 0 3 cbr 536 ------- 0 4.0 5.0 22 22
d 0.198769 2 3 cbr 536 ------- 0 4.0 5.0 22 22
r 0.200769 3 1 cbr 536 ------- 0 4.0 5.0 22 22
+ 0.200769 1 5 cbr 536 ------- 0 4.0 5.0 22 22
- 0.200769 1 5 cbr 536 ------- 0 4.0 5.0 22 22
r 0.201053 4 0 cbr 536 ------- 0 4.0 5.0 23 23
h 0.201053 0 3 cbr 536 ------- 0 4.0 5.0 23 23
r 0.202612 1 5 cbr 536 ------- 0 4.0 5.0 22 22
+ 0.202912 4 0 cbr 536 ------- 0 4.0 5.0 24 24
- 0.202912 4 0 cbr 536 ------- 0 4.0 5.0 24 24
+ 0.203053 0 3 cbr 536 ------- 0 4.0 5.0 23 23
- 0.203053 0 3 cbr 536 ------- 0 4.0 5.0 23 23
d 0.203057 2 3 cbr 536 ------- 0 4.0 5.0 23 23
r 0.205057 3 1 cbr 536 ------- 0 4.0 5.0 23 23
+ 0.205057 1 5 cbr 536 ------- 0 4.0 5.0 23 23
- 0.205057 1 5 cbr 536 ------- 0 4.0 5.0 23 23
r 0.205341 4 0 cbr 536 ------- 0 4.0 5.0 24 24
h 0.205341 0 3 cbr 536 ------- 0 4.0 5.0 24 24
r 0.2069 1 5 cbr 536 ------- 0 4.0 5.0 23 23
+ 0.2072 4 0 cbr 536 ------- 0 4.0 5.0 25 25
- 0.2072 4 0 cbr 536 ------- 0 4.0 5.0 25 25
+ 0.207341 0 3 cbr 536 ------- 0 4.0 5.0 24 24
- 0.207341 0 3 cbr 536 ------- 0 4.0 5.0 24 24
d 0.207345 2 3 cbr 536 ------- 0 4.0 5.0 24 24
r 0.209345 3 1 cbr 536 ------- 0 4.0 5.0 24 24
+ 0.209345 1 5 cbr 536 ------- 0 4.0 5.0 24 24
- 0.209345 1 5 cbr 536 ------- 0 4.0 5.0 24 24
r 0.209629 4 0 cbr 536 ------- 0 4.0 5.0 25 25
h 0.209629 0 3 cbr 536 ------- 0 4.0 5.0 25 25
r 0.211188 1 5 cbr 536 ------- 0 4.0 5.0 24 24
+ 0.211488 4 0 cbr 536 ------- 0 4.0 5.0 26 26
- 0.211488 4 0 cbr 536 ------- 0 4.0 5.0 26 26
+ 0.211629 0 3 cbr 536 ------- 0 4.0 5.0 25 25
- 0.211629 0 3 cbr 536 ------- 0 4.0 5.0 25 25
d 0.211633 2 3 cbr 536 ------- 0 4.0 5.0 25 25
r 0.213633 3 1 cbr 536 ------- 0 4.0 5.0 25 25
+ 0.213633 1 5 cbr 536 ------- 0 4.0 5.0 25 25
- 0.213633 1 5 cbr 536 ------- 0 4.0 5.0 25 25
r 0.213917 4 0 cbr 536 ------- 0 4.0 5.0 26 26
h 0.213917 0 3 cbr 536 ------- 0 4.0 5.0 26 26
r 0.215476 1 5 cbr 536 ------- 0 4.0 5.0 25 25
+ 0.215776 4 0 cbr 536 ------- 0 4.0 5.0 27 27
- 0.215776 4 0 cbr 536 ------- 0 4.0 5.0 27 27
+ 0.215917 0 3 cbr 536 ------- 0 4.0 5.0 26 26
- 0.215917 0 3 cbr 536 ------- 0 4.0 5.0 26 26
d 0.215921 2 3 cbr 536 ------- 0 4.0 5.0 26 26
r 0.217921 3 1 cbr 536 ------- 0 4.0 5.0 26 26
+ 0.217921 1 5 cbr 536 ------- 0 4.0 5.0 26 26
- 0.217921 1 5 cbr 536 ------- 0 4.0 5.0 26 26
r 0.218205 4 0 cbr 536 ------- 0 4.0 5.0 27 27
h 0.218205 0 3 cbr 536 ------- 0 4.0 5.0 27 27
r 0.219764 1 5 cbr 536 ------- 0 4.0 5.0 26 26
+ 0.220064 4 0 cbr 536 ------- 0 4.0 5.0 28 28
- 0.220064 4 0 cbr 536 ------- 0 4.0 5.0 28 28
+ 0.220205 0 3 cbr 536 ------- 0 4.0 5.0 27 27
- 0.220205 0 3 cbr 536 ------- 0 4.0 5.0 27 27
d 0.220209 2 3 cbr 536 ------- 0 4.0 5.0 27 27
r 0.222209 3 1 cbr 536 ------- 0 4.0 5.0 27 27
+ 0.222209 1 5 cbr 536 ------- 0 4.0 5.0 27 27
- 0.222209 1 5 cbr 536 ------- 0 4.0 5.0 27 27
r 0.222493 4 0 cbr 536 ------- 0 4.0 5.0 28 28
h 0.222493 0 3 cbr 536 ------- 0 4.0 5.0 28 28
r 0.224052 1 5 cbr 536 ------- 0 4.0 5.0 27 27
+ 0.224352 4 0 cbr 536 ------- 0 4.0 5.0 29 29
- 0.224352 4 0 cbr 536 ------- 0 4.0 5.0 29 29
+ 0.224493 0 3 cbr 536 ------- 0 4.0 5.0 28 28
- 0.224493 0 3 cbr 536 ------- 0 4.0 5.0 28 28
d 0.224497 2 3 cbr 536 ------- 0 4.0 5.0 28 28
r 0.226497 3 1 cbr 536 ------- 0 4.0 5.0 28 28
+ 0.226497 1 5 cbr 536 ------- 0 4.0 5.0 28 28
- 0.226497 1 5 cbr 536 ------- 0 4.0 5.0 28 28
r 0.226781 4 0 cbr 536 ------- 0 4.0 5.0 29 29
h 0.226781 0 3 cbr 536 ------- 0 4.0 5.0 29 29
r 0.22834 1 5 cbr 536 ------- 0 4.0 5.0 28 28
+ 0.22864 4 0 cbr 536 ------- 0 4.0 5.0 30 30
- 0.22864 4 0 cbr 536 ------- 0 4.0 5.0 30 30
+ 0.228781 0 3 cbr 536 ------- 0 4.0 5.0 29 29
- 0.228781 0 3 cbr 536 ------- 0 4.0 5.0 29 29
d 0.228785 2 3 cbr 536 ------- 0 4.0 5.0 29 29
r 0.230785 3 1 cbr 536 ------- 0 4.0 5.0 29 29
+ 0.230785 1 5 cbr 536 ------- 0 4.0 5.0 29 29
- 0.230785 1 5 cbr 536 ------- 0 4.0 5.0 29 29
r 0.231069 4 0 cbr 536 ------- 0 4.0 5.0 30 30
h 0.231069 0 3 cbr 536 ------- 0 4.0 5.0 30 30
r 0.232628 1 5 cbr 536 ------- 0 4.0 5.0 29 29
+ 0.232928 4 0 cbr 536 ------- 0 4.0 5.0 31 31
- 0.232928 4 0 cbr 536 ------- 0 4.0 5.0 31 31
+ 0.233069 0 3 cbr 536 ------- 0 4.0 5.0 30 30
- 0.233069 0 3 cbr 536 ------- 0 4.0 5.0 30 30
d 0.233073 2 3 cbr 536 ------- 0 4.0 5.0 30 30
r 0.235073 3 1 cbr 536 ------- 0 4.0 5.0 30 30
+ 0.235073 1 5 cbr 536 ------- 0 4.0 5.0 30 30
- 0.235073 1 5 cbr 536 ------- 0 4.0 5.0 30 30
r 0.235357 4 0 cbr 536 ------- 0 4.0 5.0 31 31
h 0.235357 0 3 cbr 536 ------- 0 4.0 5.0 31 31
r 0.236916 1 5 cbr 536 ------- 0 4.0 5.0 30 30
+ 0.237216 4 0 cbr 536 ------- 0 4.0 5.0 32 32
- 0.237216 4 0 cbr 536 ------- 0 4.0 5.0 32 32
+ 0.237357 0 3 cbr 536 ------- 0 4.0 5.0 31 31
- 0.237357 0 3 cbr 536 ------- 0 4.0 5.0 31 31
d 0.237361 2 3 cbr 536 ------- 0 4.0 5.0 31 31
r 0.239361 3 1 cbr 536 ------- 0 4.0 5.0 31 31
+ 0.239361 1 5 cbr 536 ------- 0 4.0 5.0 31 31
- 0.239361 1 5 cbr 536 ------- 0 4.0 5.0 31 31
r 0.239645 4 0 cbr 536 ------- 0 4.0 5.0 32 32
h 0.239645 0 3 cbr 536 ------- 0 4.0 5.0 32 32
r 0.241204 1 5 cbr 536 ------- 0 4.0 5.0 31 31
+ 0.241504 4 0 cbr 536 ------- 0 4.0 5.0 33 33
- 0.241504 4 0 cbr 536 ------- 0 4.0 5.0 33 33
+ 0.241645 0 3 cbr 536 ------- 0 4.0 5.0 32 32
- 0.241645 0 3 cbr 536 ------- 0 4.0 5.0 32 32
d 0.241649 2 3 cbr 536 ------- 0 4.0 5.0 32 32
r 0.243649 3 1 cbr 536 ------- 0 4.0 5.0 32 32
+ 0.243649 1 5 cbr 536 ------- 0 4.0 5.0 32 32
- 0.243649 1 5 cbr 536 ------- 0 4.0 5.0 32 32
r 0.243933 4 0 cbr 536 ------- 0 4.0 5.0 33 33
h 0.243933 0 3 cbr 536 ------- 0 4.0 5.0 33 33
r 0.245492 1 5 cbr 536 ------- 0 4.0 5.0 32 32
+ 0.245792 4 0 cbr 536 ------- 0 4.0 5.0 34 34
- 0.245792 4 0 cbr 536 ------- 0 4.0 5.0 34 34
+ 0.245933 0 3 cbr 536 ------- 0 4.0 5.0 33 33
- 0.245933 0 3 cbr 536 ------- 0 4.0 5.0 33 33
d 0.245937 2 3 cbr 536 ------- 0 4.0 5.0 33 33
r 0.247937 3 1 cbr 536 ------- 0 4.0 5.0 33 33
+ 0.247937 1 5 cbr 536 ------- 0 4.0 5.0 33 33
- 0.247937 1 5 cbr 536 ------- 0 4.0 5.0 33 33
r 0.248221 4 0 cbr 536 ------- 0 4.0 5.0 34 34
h 0.248221 0 3 cbr 536 ------- 0 4.0 5.0 34 34
r 0.24978 1 5 cbr 536 ------- 0 4.0 5.0 33 33
+ 0.25008 4 0 cbr 536 ------- 0 4.0 5.0 35 35
- 0.25008 4 0 cbr 536 ------- 0 4.0 5.0 35 35
+ 0.250221 0 3 cbr 536 ------- 0 4.0 5.0 34 34
- 0.250221 0 3 cbr 536 ------- 0 4.0 5.0 34 34
d 0.250225 2 3 cbr 536 ------- 0 4.0 5.0 34 34
r 0.252225 3 1 cbr 536 ------- 0 4.0 5.0 34 34
+ 0.252225 1 5 cbr 536 ------- 0 4.0 5.0 34 34
- 0.252225 1 5 cbr 536 ------- 0 4.0 5.0 34 34
r 0.252509 4 0 cbr 536 ------- 0 4.0 5.0 35 35
h 0.252509 0 3 cbr 536 ------- 0 4.0 5.0 35 35
r 0.254068 1 5 cbr 536 ------- 0 4.0 5.0 34 34
+ 0.254368 4 0 cbr 536 ------- 0 4.0 5.0 36 36
- 0.254368 4 0 cbr 536 ------- 0 4.0 5.0 36 36
+ 0.254509 0 3 cbr 536 ------- 0 4.0 5.0 35 35
- 0.254509 0 3 cbr 536 ------- 0 4.0 5.0 35 35
d 0.254513 2 3 cbr 536 ------- 0 4.0 5.0 35 35
r 0.256513 3 1 cbr 536 ------- 0 4.0 5.0 35 35
+ 0.256513 1 5 cbr 536 ------- 0 4.0 5.0 35 35
- 0.256513 1 5 cbr 536 ------- 0 4.0 5.0 35 35
r 0.256797 4 0 cbr 536 ------- 0 4.0 5.0 36 36
h 0.256797 0 3 cbr 536 ------- 0 4.0 5.0 36 36
r 0.258356 1 5 cbr 536 ------- 0 4.0 5.0 35 35
+ 0.258656 4 0 cbr 536 ------- 0 4.0 5.0 37 37
- 0.258656 4 0 cbr 536 ------- 0 4.0 5.0 37 37
+ 0.258797 0 3 cbr 536 ------- 0 4.0 5.0 36 36
- 0.258797 0 3 cbr 536 ------- 0 4.0 5.0 36 36
d 0.258801 2 3 cbr 536 ------- 0 4.0 5.0 36 36
r 0.260801 3 1 cbr 536 ------- 0 4.0 5.0 36 36
+ 0.260801 1 5 cbr 536 ------- 0 4.0 5.0 36 36
- 0.260801 1 5 cbr 536 ------- 0 4.0 5.0 36 36
r 0.261085 4 0 cbr 536 ------- 0 4.0 5.0 37 37
h 0.261085 0 3 cbr 536 ------- 0 4.0 5.0 37 37
r 0.262644 1 5 cbr 536 ------- 0 4.0 5.0 36 36
+ 0.262944 4 0 cbr 536 ------- 0 4.0 5.0 38 38
- 0.262944 4 0 cbr 536 ------- 0 4.0 5.0 38 38
+ 0.263085 0 3 cbr 536 ------- 0 4.0 5.0 37 37
- 0.263085 0 3 cbr 536 ------- 0 4.0 5.0 37 37
d 0.263089 2 3 cbr 536 ------- 0 4.0 5.0 37 37
r 0.265089 3 1 cbr 536 ------- 0 4.0 5.0 37 37
+ 0.265089 1 5 cbr 536 ------- 0 4.0 5.0 37 37
- 0.265089 1 5 cbr 536 ------- 0 4.0 5.0 37 37
r 0.265373 4 0 cbr 536 ------- 0 4.0 5.0 38 38
h 0.265373 0 3 cbr 536 ------- 0 4.0 5.0 38 38
r 0.266932 1 5 cbr 536 ------- 0 4.0 5.0 37 37
+ 0.267232 4 0 cbr 536 ------- 0 4.0 5.0 39 39
- 0.267232 4 0 cbr 536 ------- 0 4.0 5.0 39 39
+ 0.267373 0 3 cbr 536 ------- 0 4.0 5.0 38 38
- 0.267373 0 3 cbr 536 ------- 0 4.0 5.0 38 38
d 0.267377 2 3 cbr 536 ------- 0 4.0 5.0 38 38
r 0.269377 3 1 cbr 536 ------- 0 4.0 5.0 38 38
+ 0.269377 1 5 cbr 536 ------- 0 4.0 5.0 38 38
- 0.269377 1 5 cbr 536 ------- 0 4.0 5.0 38 38
r 0.269661 4 0 cbr 536 ------- 0 4.0 5.0 39 39
h 0.269661 0 3 cbr 536 ------- 0 4.0 5.0 39 39
r 0.27122 1 5 cbr 536 ------- 0 4.0 5.0 38 38
+ 0.27152 4 0 cbr 536 ------- 0 4.0 5.0 40 40
- 0.27152 4 0 cbr 536 ------- 0 4.0 5.0 40 40
+ 0.271661 0 3 cbr 536 ------- 0 4.0 5.0 39 39
- 0.271661 0 3 cbr 536 ------- 0 4.0 5.0 39 39
d 0.271665 2 3 cbr 536 ------- 0 4.0 5.0 39 39
r 0.273665 3 1 cbr 536 ------- 0 4.0 5.0 39 39
+ 0.273665 1 5 cbr 536 ------- 0 4.0 5.0 39 39
- 0.273665 1 5 cbr 536 ------- 0 4.0 5.0 39 39
r 0.273949 4 0 cbr 536 ------- 0 4.0 5.0 40 40
h 0.273949 0 3 cbr 536 ------- 0 4.0 5.0 40 40
r 0.275508 1 5 cbr 536 ------- 0 4.0 5.0 39 39
+ 0.275808 4 0 cbr 536 ------- 0 4.0 5.0 41 41
- 0.275808 4 0 cbr 536 ------- 0 4.0 5.0 41 41
+ 0.275949 0 3 cbr 536 ------- 0 4.0 5.0 40 40
- 0.275949 0 3 cbr 536 ------- 0 4.0 5.0 40 40
d 0.275953 2 3 cbr 536 ------- 0 4.0 5.0 40 40
r 0.277953 3 1 cbr 536 ------- 0 4.0 5.0 40 40
+ 0.277953 1 5 cbr 536 ------- 0 4.0 5.0 40 40
- 0.277953 1 5 cbr 536 ------- 0 4.0 5.0 40 40
r 0.278237 4 0 cbr 536 ------- 0 4.0 5.0 41 41
h 0.278237 0 3 cbr 536 ------- 0 4.0 5.0 41 41
r 0.279796 1 5 cbr 536 ------- 0 4.0 5.0 40 40
+ 0.280096 4 0 cbr 536 ------- 0 4.0 5.0 42 42
- 0.280096 4 0 cbr 536 ------- 0 4.0 5.0 42 42
+ 0.280237 0 3 cbr 536 ------- 0 4.0 5.0 41 41
- 0.280237 0 3 cbr 536 ------- 0 4.0 5.0 41 41
d 0.280241 2 3 cbr 536 ------- 0 4.0 5.0 41 41
r 0.282241 3 1 cbr 536 ------- 0 4.0 5.0 41 41
+ 0.282241 1 5 cbr 536 ------- 0 4.0 5.0 41 41
- 0.282241 1 5 cbr 536 ------- 0 4.0 5.0 41 41
r 0.282525 4 0 cbr 536 ------- 0 4.0 5.0 42 42
h 0.282525 0 3 cbr 536 ------- 0 4.0 5.0 42 42
r 0.284084 1 5 cbr 536 ------- 0 4.0 5.0 41 41
+ 0.284384 4 0 cbr 536 ------- 0 4.0 5.0 43 43
- 0.284384 4 0 cbr 536 ------- 0 4.0 5.0 43 43
+ 0.284525 0 3 cbr 536 ------- 0 4.0 5.0 42 42
- 0.284525 0 3 cbr 536 ------- 0 4.0 5.0 42 42
d 0.284529 2 3 cbr 536 ------- 0 4.0 5.0 42 42
r 0.286529 3 1 cbr 536 ------- 0 4.0 5.0 42 42
+ 0.286529 1 5 cbr 536 ------- 0 4.0 5.0 42 42
- 0.286529 1 5 cbr 536 ------- 0 4.0 5.0 42 42
r 0.286813 4 0 cbr 536 ------- 0 4.0 5.0 43 43
h 0.286813 0 3 cbr 536 ------- 0 4.0 5.0 43 43
r 0.288372 1 5 cbr 536 ------- 0 4.0 5.0 42 42
+ 0.288672 4 0 cbr 536 ------- 0 4.0 5.0 44 44
- 0.288672 4 0 cbr 536 ------- 0 4.0 5.0 44 44
+ 0.288813 0 3 cbr 536 ------- 0 4.0 5.0 43 43
- 0.288813 0 3 cbr 536 ------- 0 4.0 5.0 43 43
d 0.288817 2 3 cbr 536 ------- 0 4.0 5.0 43 43
r 0.290817 3 1 cbr 536 ------- 0 4.0 5.0 43 43
+ 0.290817 1 5 cbr 536 ------- 0 4.0 5.0 43 43
- 0.290817 1 5 cbr 536 ------- 0 4.0 5.0 43 43
r 0.291101 4 0 cbr 536 ------- 0 4.0 5.0 44 44
h 0.291101 0 3 cbr 536 ------- 0 4.0 5.0 44 44
r 0.29266 1 5 cbr 536 ------- 0 4.0 5.0 43 43
+ 0.29296 4 0 cbr 536 ------- 0 4.0 5.0 45 45
- 0.29296 4 0 cbr 536 ------- 0 4.0 5.0 45 45
+ 0.293101 0 3 cbr 536 ------- 0 4.0 5.0 44 44
- 0.293101 0 3 cbr 536 ------- 0 4.0 5.0 44 44
d 0.293105 2 3 cbr 536 ------- 0 4.0 5.0 44 44
r 0.295105 3 1 cbr 536 ------- 0 4.0 5.0 44 44
+ 0.295105 1 5 cbr 536 ------- 0 4.0 5.0 44 44
- 0.295105 1 5 cbr 536 ------- 0 4.0 5.0 44 44
r 0.295389 4 0 cbr 536 ------- 0 4.0 5.0 45 45
h 0.295389 0 3 cbr 536 ------- 0 4.0 5.0 45 45
r 0.296948 1 5 cbr 536 ------- 0 4.0 5.0 44 44
+ 0.297248 4 0 cbr 536 ------- 0 4.0 5.0 46 46
- 0.297248 4 0 cbr 536 ------- 0 4.0 5.0 46 46
+ 0.297389 0 3 cbr 536 ------- 0 4.0 5.0 45 45
- 0.297389 0 3 cbr 536 ------- 0 4.0 5.0 45 45
d 0.297393 2 3 cbr 536 ------- 0 4.0 5.0 45 45
r 0.299393 3 1 cbr 536 ------- 0 4.0 5.0 45 45
+ 0.299393 1 5 cbr 536 ------- 0 4.0 5.0 45 45
- 0.299393 1 5 cbr 536 ------- 0 4.0 5.0 45 45
r 0.299677 4 0 cbr 536 ------- 0 4.0 5.0 46 46
h 0.299677 0 3 cbr 536 ------- 0 4.0 5.0 46 46
r 0.301236 1 5 cbr 536 ------- 0 4.0 5.0 45 45
+ 0.301536 4 0 cbr 536 ------- 0 4.0 5.0 47 47
- 0.301536 4 0 cbr 536 ------- 0 4.0 5.0 47 47
+ 0.301677 0 3 cbr 536 ------- 0 4.0 5.0 46 46
- 0.301677 0 3 cbr 536 ------- 0 4.0 5.0 46 46
d 0.301681 2 3 cbr 536 ------- 0 4.0 5.0 46 46
r 0.303681 3 1 cbr 536 ------- 0 4.0 5.0 46 46
+ 0.303681 1 5 cbr 536 ------- 0 4.0 5.0 46 46
- 0.303681 1 5 cbr 536 ------- 0 4.0 5.0 46 46
r 0.303965 4 0 cbr 536 ------- 0 4.0 5.0 47 47
h 0.303965 0 3 cbr 536 ------- 0 4.0 5.0 47 47
r 0.305524 1 5 cbr 536 ------- 0 4.0 5.0 46 46
+ 0.305824 4 0 cbr 536 ------- 0 4.0 5.0 48 48
- 0.305824 4 0 cbr 536 ------- 0 4.0 5.0 48 48
+ 0.305965 0 3 cbr 536 ------- 0 4.0 5.0 47 47
- 0.305965 0 3 cbr 536 ------- 0 4.0 5.0 47 47
d 0.305969 2 3 cbr 536 ------- 0 4.0 5.0 47 47
r 0.307969 3 1 cbr 536 ------- 0 4.0 5.0 47 47
+ 0.307969 1 5 cbr 536 ------- 0 4.0 5.0 47 47
- 0.307969 1 5 cbr 536 ------- 0 4.0 5.0 47 47
r 0.308253 4 0 cbr 536 ------- 0 4.0 5.0 48 48
h 0.308253 0 3 cbr 536 ------- 0 4.0 5.0 48 48
r 0.309812 1 5 cbr 536 ------- 0 4.0 5.0 47 47
+ 0.310112 4 0 cbr 536 ------- 0 4.0 5.0 49 49
- 0.310112 4 0 cbr 536 ------- 0 4.0 5.0 49 49
+ 0.310253 0 3 cbr 536 ------- 0 4.0 5.0 48 48
- 0.310253 0 3 cbr 536 ------- 0 4.0 5.0 48 48
d 0.310257 2 3 cbr 536 ------- 0 4.0 5.0 48 48
r 0.312257 3 1 cbr 536 ------- 0 4.0 5.0 48 48
+ 0.312257 1 5 cbr 536 ------- 0 4.0 5.0 48 48
- 0.312257 1 5 cbr 536 ------- 0 4.0 5.0 48 48
r 0.312541 4 0 cbr 536 ------- 0 4.0 5.0 49 49
h 0.312541 0 3 cbr 536 ------- 0 4.0 5.0 49 49
r 0.3141 1 5 cbr 536 ------- 0 4.0 5.0 48 48
+ 0.3144 4 0 cbr 536 ------- 0 4.0 5.0 50 50
- 0.3144 4 0 cbr 536 ------- 0 4.0 5.0 50 50
+ 0.314541 0 3 cbr 536 ------- 0 4.0 5.0 49 49
- 0.314541 0 3 cbr 536 ------- 0 4.0 5.0 49 49
d 0.314545 2 3 cbr 536 ------- 0 4.0 5.0 49 49
r 0.316545 3 1 cbr 536 ------- 0 4.0 5.0 49 49
+ 0.316545 1 5 cbr 536 ------- 0 4.0 5.0 49 49
- 0.316545 1 5 cbr 536 ------- 0 4.0 5.0 49 49
r 0.316829 4 0 cbr 536 ------- 0 4.0 5.0 50 50
h 0.316829 0 3 cbr 536 ------- 0 4.0 5.0 50 50
r 0.318388 1 5 cbr 536 ------- 0 4.0 5.0 49 49
+ 0.318688 4 0 cbr 536 ------- 0 4.0 5.0 51 51
- 0.318688 4 0 cbr 536 ------- 0 4.0 5.0 51 51
+ 0.318829 0 3 cbr 536 ------- 0 4.0 5.0 50 50
- 0.318829 0 3 cbr 536 ------- 0 4.0 5.0 50 50
d 0.318833 2 3 cbr 536 ------- 0 4.0 5.0 50 50
r 0.320833 3 1 cbr 536 ------- 0 4.0 5.0 50 50
+ 0.320833 1 5 cbr 536 ------- 0 4.0 5.0 50 50
- 0.320833 1 5 cbr 536 ------- 0 4.0 5.0 50 50
r 0.321117 4 0 cbr 536 ------- 0 4.0 5.0 51 51
h 0.321117 0 3 cbr 536 ------- 0 4.0 5.0 51 51
r 0.322676 1 5 cbr 536 ------- 0 4.0 5.0 50 50
+ 0.322976 4 0 cbr 536 ------- 0 4.0 5.0 52 52
- 0.322976 4 0 cbr 536 ------- 0 4.0 5.0 52 52
+ 0.323117 0 3 cbr 536 ------- 0 4.0 5.0 51 51
- 0.323117 0 3 cbr 536 ------- 0 4.0 5.0 51 51
d 0.323121 2 3 cbr 536 ------- 0 4.0 5.0 51 51
r 0.325121 3 1 cbr 536 ------- 0 4.0 5.0 51 51
+ 0.325121 1 5 cbr 536 ------- 0 4.0 5.0 51 51
- 0.325121 1 5 cbr 536 ------- 0 4.0 5.0 51 51
r 0.325405 4 0 cbr 536 ------- 0 4.0 5.0 52 52
h 0.325405 0 3 cbr 536 ------- 0 4.0 5.0 52 52
r 0.326964 1 5 cbr 536 ------- 0 4.0 5.0 51 51
+ 0.327264 4 0 cbr 536 ------- 0 4.0 5.0 53 53
- 0.327264 4 0 cbr 536 ------- 0 4.0 5.0 53 53
+ 0.327405 0 3 cbr 536 ------- 0 4.0 5.0 52 52
- 0.327405 0 3 cbr 536 ------- 0 4.0 5.0 52 52
d 0.327409 2 3 cbr 536 ------- 0 4.0 5.0 52 52
r 0.329409 3 1 cbr 536 ------- 0 4.0 5.0 52 52
+ 0.329409 1 5 cbr 536 ------- 0 4.0 5.0 52 52
- 0.329409 1 5 cbr 536 ------- 0 4.0 5.0 52 52
r 0.329693 4 0 cbr 536 ------- 0 4.0 5.0 53 53
h 0.329693 0 3 cbr 536 ------- 0 4.0 5.0 53 53
r 0.331252 1 5 cbr 536 ------- 0 4.0 5.0 52 52
+ 0.331552 4 0 cbr 536 ------- 0 4.0 5.0 54 54
- 0.331552 4 0 cbr 536 ------- 0 4.0 5.0 54 54
+ 0.331693 0 3 cbr 536 ------- 0 4.0 5.0 53 53
- 0.331693 0 3 cbr 536 ------- 0 4.0 5.0 53 53
d 0.331697 2 3 cbr 536 ------- 0 4.0 5.0 53 53
r 0.333697 3 1 cbr 536 ------- 0 4.0 5.0 53 53
+ 0.333697 1 5 cbr 536 ------- 0 4.0 5.0 53 53
- 0.333697 1 5 cbr 536 ------- 0 4.0 5.0 53 53
r 0.333981 4 0 cbr 536 ------- 0 4.0 5.0 54 54
h 0.333981 0 3 cbr 536 ------- 0 4.0 5.0 54 54
r 0.33554 1 5 cbr 536 ------- 0 4.0 5.0 53 53
+ 0.33584 4 0 cbr 536 ------- 0 4.0 5.0 55 55
- 0.33584 4 0 cbr 536 ------- 0 4.0 5.0 55 55
+ 0.335981 0 3 cbr 536 ------- 0 4.0 5.0 54 54
- 0.335981 0 3 cbr 536 ------- 0 4.0 5.0 54 54
d 0.335985 2 3 cbr 536 ------- 0 4.0 5.0 54 54
r 0.337985 3 1 cbr 536 ------- 0 4.0 5.0 54 54
+ 0.337985 1 5 cbr 536 ------- 0 4.0 5.0 54 54
- 0.337985 1 5 cbr 536 ------- 0 4.0 5.0 54 54
r 0.338269 4 0 cbr 536 ------- 0 4.0 5.0 55 55
h 0.338269 0 3 cbr 536 ------- 0 4.0 5.0 55 55
r 0.339828 1 5 cbr 536 ------- 0 4.0 5.0 54 54
+ 0.340128 4 0 cbr 536 ------- 0 4.0 5.0 56 56
- 0.340128 4 0 cbr 536 ------- 0 4.0 5.0 56 56
+ 0.340269 0 3 cbr 536 ------- 0 4.0 5.0 55 55
- 0.340269 0 3 cbr 536 ------- 0 4.0 5.0 55 55
d 0.340273 2 3 cbr 536 ------- 0 4.0 5.0 55 55
r 0.342273 3 1 cbr 536 ------- 0 4.0 5.0 55 55
+ 0.342273 1 5 cbr 536 ------- 0 4.0 5.0 55 55
- 0.342273 1 5 cbr 536 ------- 0 4.0 5.0 55 55
r 0.342557 4 0 cbr 536 ------- 0 4.0 5.0 56 56
h 0.342557 0 3 cbr 536 ------- 0 4.0 5.0 56 56
r 0.344116 1 5 cbr 536 ------- 0 4.0 5.0 55 55
+ 0.344416 4 0 cbr 536 ------- 0 4.0 5.0 57 57
- 0.344416 4 0 cbr 536 ------- 0 4.0 5.0 57 57
+ 0.344557 0 3 cbr 536 ------- 0 4.0 5.0 56 56
- 0.344557 0 3 cbr 536 ------- 0 4.0 5.0 56 56
d 0.344561 2 3 cbr 536 ------- 0 4.0 5.0 56 56
r 0.346561 3 1 cbr 536 ------- 0 4.0 5.0 56 56
+ 0.346561 1 5 cbr 536 ------- 0 4.0 5.0 56 56
- 0.346561 1 5 cbr 536 ------- 0 4.0 5.0 56 56
r 0.346845 4 0 cbr 536 ------- 0 4.0 5.0 57 57
h 0.346845 0 3 cbr 536 ------- 0 4.0 5.0 57 57
r 0.348404 1 5 cbr 536 ------- 0 4.0 5.0 56 56
+ 0.348704 4 0 cbr 536 ------- 0 4.0 5.0 58 58
- 0.348704 4 0 cbr 536 ------- 0 4.0 5.0 58 58
+ 0.348845 0 3 cbr 536 ------- 0 4.0 5.0 57 57
- 0.348845 0 3 cbr 536 ------- 0 4.0 5.0 57 57
d 0.348849 2 3 cbr 536 ------- 0 4.0 5.0 57 57
r 0.350849 3 1 cbr 536 ------- 0 4.0 5.0 57 57
+ 0.350849 1 5 cbr 536 ------- 0 4.0 5.0 57 57
- 0.350849 1 5 cbr 536 ------- 0 4.0 5.0 57 57
r 0.351133 4 0 cbr 536 ------- 0 4.0 5.0 58 58
h 0.351133 0 3 cbr 536 ------- 0 4.0 5.0 58 58
r 0.352692 1 5 cbr 536 ------- 0 4.0 5.0 57 57
+ 0.352992 4 0 cbr 536 ------- 0 4.0 5.0 59 59
- 0.352992 4 0 cbr 536 ------- 0 4.0 5.0 59 59